
------- UO2.scf0 --------


            ---------
:ITE087: 87. ITERATION
            ---------

:NATO :    2 INDEPENDENT AND    3 TOTAL ATOMS IN UNITCELL
       SUBSTANCE: blebleble                                                   

       LATTICE                      = F   
:POT  : POTENTIAL OPTION EX_LDA EC_LDA VX_LDA VC_LDA
:LAT  : LATTICE CONSTANTS= 10.05900 10.05900 10.05900    1.571    1.571    1.571
:VOL  : UNIT CELL VOLUME =     254.45116
       MODE OF CALCULATION IS       = RELA
       NON-SPINPOLARIZED CALCULATION
:IFFT  : FFT-parameters:   80   80   80 Factor: 2.00
       ATOMNUMBER=  1 U  4+      VCOUL-ZERO = -0.33733E+00
       ATOMNUMBER=  2 O  2-      VCOUL-ZERO =  0.90383E+00
:FIT001: LUSE= 13 SIGMA OF V-XC FIT FOR ATOM  1  0.5266813E-04
:FIT001: LUSE= 13 SIGMA OF V-XC FIT FOR ATOM  1  0.5266813E-04
:FIT002: LUSE= 13 SIGMA OF V-XC FIT FOR ATOM  2  0.1755375E-03
:FIT002: LUSE= 13 SIGMA OF V-XC FIT FOR ATOM  2  0.1755375E-03
:DEN  : DENSITY INTEGRAL  =        -20916.49749256   (Ry)
       ELS_POTENTIAL_AT Z=0 and Z=0.5:  -3.49949  -3.49949
       ELS_POTENTIAL_AT Y=0 and Y=0.5:   0.00000   0.00000
:VZERO:v0,v0c,v0x  -4.24759  -3.49949  -0.74810 v5,v5c,v5x  -4.24759  -3.49949  -0.74810
:VZERY:v0,v0c,v0x  -0.90043   0.00000  -0.90043 v5,v5c,v5x  -0.90043   0.00000  -0.90043
:VZERX:v0,v0c,v0x  -0.90043   0.00000  -0.90043 v5,v5c,v5x  -0.90043   0.00000  -0.90043

------- UO2.scf1 --------

          ATOMIC SPHERE DEPENDENT PARAMETERS FOR ATOM  U  4+     
:e__0001: OVERALL ENERGY PARAMETER IS    0.8842
          OVERALL BASIS SET ON ATOM IS LAPW
:E0_0001: E( 0)=    0.8842
             APW+lo
:E0_0001: E( 0)=   -2.0886   E(BOTTOM)=   -3.436   E(TOP)=   -0.741  5  6   234
             LOCAL ORBITAL
:E1_0001: E( 1)=   -1.2800   E(BOTTOM)=   -1.703   E(TOP)= -200.000  4 -1   216
             APW+lo
:E1_0001: E( 1)=    1.2842
             LOCAL ORBITAL
:E3_0001: E( 3)=    1.1380   E(BOTTOM)=    0.349   E(TOP)=    1.927  1  2   178
             APW+lo
:E2_0001: E( 2)=    0.9076   E(BOTTOM)=    0.908   E(TOP)= -200.000  3 -1   109
             APW+lo

          ATOMIC SPHERE DEPENDENT PARAMETERS FOR ATOM  O  2-     
:e__0002: OVERALL ENERGY PARAMETER IS    0.8842
          OVERALL BASIS SET ON ATOM IS LAPW
:E0_0002: E( 0)=   -0.1844   E(BOTTOM)=   -1.563   E(TOP)=    1.194  1  2   243
             APW+lo
:E0_0002: E( 0)=    1.2842
             LOCAL ORBITAL
:E1_0002: E( 1)=    0.8842
             APW+lo

       K=   0.00000   0.00000   0.00000            1
:RKM  : MATRIX SIZE   675LOs:  30  RKM= 8.48  WEIGHT= 1.00  PGR:    
       EIGENVALUES ARE:
:EIG00001:      -2.1797928   -0.4005722   -0.3282248   -0.3282248   -0.3282248
:EIG00006:      -0.2899574    0.5017238    0.5017238    0.5017238    0.7558131
:EIG00011:       0.7558131    0.7558131    1.1133937    1.1133937    1.1133937
:EIG00016:       1.1627066    1.1966462    1.1966462    1.1966462    1.2676207
:EIG00021:       1.2770292    1.2770292    1.8562908    1.8562908    1.8562908
:EIG00026:       2.0407974    2.0407974    2.0407974    2.4974228    2.8080681
:EIG00031:       2.8080681    2.8252940    2.8252940    2.8252940    3.3353608
:EIG00036:       3.3353608    3.3353608    3.3968876    3.3968876    3.3968876
:EIG00041:       3.5857715    3.8996939    3.8996939    3.9921900    3.9921900
:EIG00046:       3.9921900    3.9959352    3.9959352    4.0071003    4.0071003
 
:EIG00051:       4.0071003    4.2714372    4.2927468    4.2927468    4.2927468
:EIG00056:       4.3464218    4.4010786    4.4010786    4.4010786    4.5371221
:EIG00061:       4.5371221    4.5371221    4.5378076    4.5378076    4.5378076
:EIG00066:       4.9111795    5.4788927    5.4788927    5.4788927    5.6646796
:EIG00071:       5.6646796    5.7727228    5.7727228    5.7727228    5.9083752
:EIG00076:       6.4047461    6.4047461    6.4586572    6.4586572    6.4586572
:EIG00081:       6.6582660    6.6582660    6.6582660    6.6789463    6.6789463
:EIG00086:       6.6789463    7.0156725    7.0156725    7.0156725    7.0838866
:EIG00091:       7.0838866    7.1422953    7.2426244    7.2426244    7.2632905
:EIG00096:       7.2632905    7.2632905    7.3936367    7.3936367    7.3936367
 
:EIG00101:       7.4686414    7.4686414    7.4686414    7.5537598    7.6358213
:EIG00106:       7.6358213    7.6358213    7.7848141    7.8152240    7.9181759
:EIG00111:       7.9181759    7.9247324    7.9247324    7.9247324    7.9776644
:EIG00116:       7.9776644    7.9776644    8.1639811    8.1639811    8.1639811
:EIG00121:       8.4267018    8.4267018    8.4267018
       ********************************************************

:KPT   :      NUMBER OF K-POINTS:   145

------- UO2.scfso --------
   0.0   0.0 angle (M,z), angle (M,x) deg
 
        SPIN-ORBIT EIGENVALUES:
     K=   0.00000   0.00000   0.00000            1
      MATRIX SIZE=  246   WEIGHT= 1.00
     EIGENVALUES ARE:
          -2.1797928   -2.1797928   -0.7293346   -0.7293346   -0.4005722
          -0.4005722   -0.2899627   -0.2899627   -0.1625402   -0.1625402
          -0.1625402   -0.1625402    0.4995233    0.4995233    0.4995233
           0.4995233    0.5052430    0.5052430    0.7500299    0.7500299
           0.7587241    0.7587241    0.7587241    0.7587241    1.0874133
           1.0874133    1.1073509    1.1073509    1.1073509    1.1073509
           1.1784889    1.1784889    1.1991582    1.1991582    1.1991582
           1.1991582    1.2139361    1.2139361    1.2676207    1.2676207

           1.2752198    1.2752198    1.2752198    1.2752198    1.8444840
           1.8444840    1.8444840    1.8444840    1.8796629    1.8796629
           1.9769870    1.9769870    2.0710189    2.0710189    2.0710189
           2.0710189    2.4974228    2.4974228    2.7980168    2.7980168
           2.7980168    2.7980168    2.8309035    2.8309035    2.8309035
           2.8309035    2.8343862    2.8343862    3.1480194    3.1480194
           3.3937742    3.3937742    3.3980093    3.3980093    3.3980093
           3.3980093    3.4420084    3.4420084    3.4420084    3.4420084

           3.5862056    3.5862056    3.8944943    3.8944943    3.8944943
           3.8944943    3.9921696    3.9921696    3.9922001    3.9922001
           3.9922001    3.9922001    3.9959351    3.9959351    3.9959351
           3.9959351    4.0036794    4.0036794    4.0036794    4.0036794
           4.0264715    4.0264715    4.2714372    4.2714372    4.2928540
           4.2928540    4.2929891    4.2929891    4.2929891    4.2929891
           4.3464218    4.3464218    4.4010707    4.4010707    4.4010707
           4.4010707    4.4011283    4.4011283
       ********************************************************

------- UO2.scf2 --------
:GMA  : POTENTIAL AND CHARGE CUT-OFF  12.00 Ry**.5
         Bandranges (emin - emax) and occupancy:
:BAN00018:  18    0.505243    0.753017  1.00000000
:BAN00019:  19    0.619306    0.756723  1.00000000
:BAN00020:  20    0.619306    0.756723  1.00000000
:BAN00021:  21    0.719329    0.791134  1.00000000
:BAN00022:  22    0.719329    0.791134  1.00000000
:BAN00023:  23    0.755410    0.833911  1.00000000
:BAN00024:  24    0.755410    0.833911  1.00000000
:BAN00025:  25    1.024459    1.087413  0.93249231
:BAN00026:  26    1.024459    1.087413  0.93249231
:BAN00027:  27    1.066699    1.107351  0.06750769
:BAN00028:  28    1.066699    1.107351  0.06750769
:BAN00029:  29    1.081499    1.107351  0.00000000
:BAN00030:  30    1.081499    1.107351  0.00000000
:BAN00031:  31    1.099540    1.178489  0.00000000
:BAN00032:  32    1.099540    1.178489  0.00000000
:BAN00033:  33    1.134822    1.199158  0.00000000
        Energy to separate low and high energystates:    0.97446


:NLDA  : NUMBER OF ELECTRONS          =  26.000

:FLDA  : F E R M I - ENERGY           =   1.57383




:POS001: AT.NR.   1 POSITION = 0.00000 0.00000 0.00000  MULTIPLICITY =  1

       LMMAX  5
       LM=   0 0  4 0  4 4  6 0  6 4




:POS002: AT.NR.   2 POSITION = 0.00000 0.00000 0.00000  MULTIPLICITY =  2

       LMMAX  6
       LM=   0 0  4 0  4 4  6 0  6 4 -3 2
:FER DMFT Fermi Energy   0.85426
:EORB        -57.918034574
:SUM SUM OF DMFT BAND ENERGIES         60.347678742

:CHA001: TOTAL CHARGE INSIDE SPHERE   1 =     8.256336
:PCS001: PARTIAL CHARGES SPHERE =  1 S,P,D,F,      D-EG,D-T2G 
:QTL001: 1.8047 4.2118 0.2783 1.9565 0.0000 0.0000 0.0000 0.0674 0.2350 0.0000 0.0000 0.0000
        Q-s-low E-s-low   Q-p-low E-p-low   Q-d-low E-d-low   Q-f-low E-f-low
:EPL001:  1.8046 -2.0765    4.2106 -0.2905    0.2771  0.5625    0.2482  0.7138
        Q-s-hi  E-s-hi    Q-p-hi  E-p-hi    Q-d-hi  E-d-hi    Q-f-hi  E-f-hi 
:EPH001:  0.0002  1.0697    0.0012  1.0762    0.0012  1.0721    1.7083  1.0661

:CHA002: TOTAL CHARGE INSIDE SPHERE   2 =     5.249660
:PCS002: PARTIAL CHARGES SPHERE =  2 S,P,D,F,      D-EG,D-T2G 
:QTL002: 1.5785 3.6533 0.0147 0.0026 0.0000 0.0000 0.0000 0.0053 0.0163 0.0000 0.0000 0.0000
        Q-s-low E-s-low   Q-p-low E-p-low   Q-d-low E-d-low   Q-f-low E-f-low
:EPL002:  1.5770 -0.3170    3.6464  0.6612    0.0130  0.1314    0.0021  0.0533
        Q-s-hi  E-s-hi    Q-p-hi  E-p-hi    Q-d-hi  E-d-hi    Q-f-hi  E-f-hi 
:EPH002:  0.0015  1.0568    0.0068  1.0838    0.0017  1.0723    0.0004  1.0656

:CHA  : TOTAL CHARGE INSIDE UNIT CELL =      26.000000

:ESUM  : SUM OF EIGENVALUES =           2.442772538


------- UO2.scfc --------

        1.ATOM      U  4+                21 CORE STATES
:1S 001: 1S               -8506.186773782 Ry
:2S 001: 2S               -1587.637469698 Ry
:2PP001: 2P*              -1530.882636455 Ry
:2P 001: 2P               -1249.687443794 Ry
:3S 001: 3S                -399.781533377 Ry
:3PP001: 3P*               -374.008024898 Ry
:3P 001: 3P                -309.225095578 Ry
:3DD001: 3D*               -268.412264928 Ry
:3D 001: 3D                -255.267168695 Ry
:4S 001: 4S                -100.851305885 Ry
:4PP001: 4P*                -89.257731560 Ry
:4P 001: 4P                 -72.348113485 Ry
:4DD001: 4D*                -53.883322838 Ry
:4D 001: 4D                 -50.774789927 Ry
:5S 001: 5S                 -21.446157868 Ry
:5PP001: 5P*                -16.939537289 Ry
:5P 001: 5P                 -12.909685819 Ry
:4FF001: 4F*                -26.488626424 Ry
:4F 001: 4F                 -25.678650555 Ry
:5DD001: 5D*                 -6.320818029 Ry
:5D 001: 5D                  -5.722726046 Ry

        2.ATOM      O  2-                 1 CORE STATES
:1S 002: 1S                 -35.864474886 Ry

------- UO2.scfm --------
:CINT001 Core Integral Atom   1   77.964173
:CINT002 Core Integral Atom   2    2.000000

       DENSITY AT NUCLEUS
        JATOM        VALENCE       SEMI-CORE          CORE           TOTAL
:RTO001:   1    17160.447076        0.000000 34591722.993534 34608883.440610
:RTO002:   2       14.988786        0.000000      299.338314      314.327100
     
       CHARGES OF NEW CHARGE DENSITY
:NTO   : INTERSTITIAL CHARGE =     7.244295
:NTO001: CHARGE SPHERE  1    =    86.220509
:NTO002: CHARGE SPHERE  2    =     7.249660

:NEC01: NUCLEAR AND ELECTRONIC CHARGE    108.00000   107.96412
     
       CHARGES OF OLD CHARGE DENSITY
:OTO   : INTERSTITIAL CHARGE =     7.282998
:OTO001: CHARGE SPHERE  1    =    86.217884
:OTO002: CHARGE SPHERE  2    =     7.249559

:NEC02: NUCLEAR AND ELECTRONIC CHARGE    108.00000   108.00000
     
       CONVERGENCE TEST
:DTO001: DIFFERENCE IN SPHERE  1 =  0.0035869
:DTO002: DIFFERENCE IN SPHERE  2 =  0.0013022

:DIS  :  CHARGE DISTANCE       ( 0.0035869 for atom    1 spin 1)      0.0020638
:BIG check (qbig,qrms,qtot)    0.120D-02   0.165D-02   0.206D-02
 
******************************************************
* MULTISECANT MIXING VER6 RELEASE 6.0 OPTIONS        *
* Standard Mode with controls                        *
* Regularization       1.000E-06                     *
* Trust Region Control Active                        *
* Max Number of Memory Steps    8                    *
******************************************************
 
:PLANE:  INTERSTITIAL TOTAL      2.55779 DISTAN  1.340E-01 % 
:CHARG:  CLM CHARGE   /ATOM    345.91861 DISTAN  1.347E-02 % 
:DIRM :  MEMORY  0/ 8 RESCALES   1.00
:MIX  :   PRATT  REGULARIZATION: 1.00E-06  GREED: 0.025
     
       CHARGES OF MIXED CHARGE DENSITY
:CTO   : INTERSTITIAL CHARGE =     7.282928
:CTO001: CHARGE SPHERE  1    =    86.217950
:CTO002: CHARGE SPHERE  2    =     7.249561

:NEC03: NUCLEAR AND ELECTRONIC CHARGE    108.00000   108.00000

PW CHANGE     H    K    L       Current     Change     Residue
:PTO001:      0    0    0  9.92420438E-02 -1.390E-07 -5.560E-06
:PTO002:     -1   -1   -1  2.31742033E-01 -2.039E-08 -8.156E-07
:PTO003:      0    0   -2 -2.05167028E-03 -1.390E-06 -5.559E-05
:PTO004:      0   -2   -2  3.02125900E-01  1.574E-06  6.295E-05
:PTO005:     -1   -1   -3  1.50565161E-01 -3.523E-06 -1.409E-04
:PTO006:     -2   -2   -2 -2.33688777E-02  2.723E-06  1.089E-04
:PTO007:      0    0   -4  4.03011677E-02 -2.124E-06 -8.497E-05
:PTO008:     -1   -3   -3  2.11540458E-02 -6.812E-07 -2.725E-05
:PTO009:      0   -2   -4 -5.30783687E-02 -5.320E-06 -2.128E-04
:PTO010:     -2   -2   -4  3.06198704E-02  1.991E-06  7.965E-05
:PTO011:     -3   -3   -3 -6.44829206E-03  3.879E-06  1.552E-04
:PTO012:     -1   -1   -5 -7.87236917E-03 -2.794E-06 -1.118E-04

:ENE  : ********** TOTAL ENERGY IN Ry =       -56437.60413844


------- UO2.scf0 --------


            ---------
:ITE088: 88. ITERATION
            ---------

:NATO :    2 INDEPENDENT AND    3 TOTAL ATOMS IN UNITCELL
       SUBSTANCE: blebleble                                                   

       LATTICE                      = F   
:POT  : POTENTIAL OPTION EX_LDA EC_LDA VX_LDA VC_LDA
:LAT  : LATTICE CONSTANTS= 10.05900 10.05900 10.05900    1.571    1.571    1.571
:VOL  : UNIT CELL VOLUME =     254.45116
       MODE OF CALCULATION IS       = RELA
       NON-SPINPOLARIZED CALCULATION
:IFFT  : FFT-parameters:   80   80   80 Factor: 2.00
       ATOMNUMBER=  1 U  4+      VCOUL-ZERO = -0.33732E+00
       ATOMNUMBER=  2 O  2-      VCOUL-ZERO =  0.90383E+00
:FIT001: LUSE= 13 SIGMA OF V-XC FIT FOR ATOM  1  0.5249662E-04
:FIT001: LUSE= 13 SIGMA OF V-XC FIT FOR ATOM  1  0.5249662E-04
:FIT002: LUSE= 13 SIGMA OF V-XC FIT FOR ATOM  2  0.1755378E-03
:FIT002: LUSE= 13 SIGMA OF V-XC FIT FOR ATOM  2  0.1755378E-03
:DEN  : DENSITY INTEGRAL  =        -20916.50597410   (Ry)
       ELS_POTENTIAL_AT Z=0 and Z=0.5:  -3.49949  -3.49949
       ELS_POTENTIAL_AT Y=0 and Y=0.5:   0.00000   0.00000
:VZERO:v0,v0c,v0x  -4.24759  -3.49949  -0.74810 v5,v5c,v5x  -4.24759  -3.49949  -0.74810
:VZERY:v0,v0c,v0x  -0.90043   0.00000  -0.90043 v5,v5c,v5x  -0.90043   0.00000  -0.90043
:VZERX:v0,v0c,v0x  -0.90043   0.00000  -0.90043 v5,v5c,v5x  -0.90043   0.00000  -0.90043

------- UO2.scf1 --------

          ATOMIC SPHERE DEPENDENT PARAMETERS FOR ATOM  U  4+     
:e__0001: OVERALL ENERGY PARAMETER IS    0.8842
          OVERALL BASIS SET ON ATOM IS LAPW
:E0_0001: E( 0)=    0.8842
             APW+lo
:E0_0001: E( 0)=   -2.0886   E(BOTTOM)=   -3.436   E(TOP)=   -0.741  5  6   240
             LOCAL ORBITAL
:E1_0001: E( 1)=   -1.2800   E(BOTTOM)=   -1.703   E(TOP)= -200.000  4 -1   216
             APW+lo
:E1_0001: E( 1)=    1.2842
             LOCAL ORBITAL
:E3_0001: E( 3)=    1.1381   E(BOTTOM)=    0.349   E(TOP)=    1.927  1  2   181
             APW+lo
:E2_0001: E( 2)=    0.9076   E(BOTTOM)=    0.908   E(TOP)= -200.000  3 -1   112
             APW+lo

          ATOMIC SPHERE DEPENDENT PARAMETERS FOR ATOM  O  2-     
:e__0002: OVERALL ENERGY PARAMETER IS    0.8842
          OVERALL BASIS SET ON ATOM IS LAPW
:E0_0002: E( 0)=   -0.1844   E(BOTTOM)=   -1.563   E(TOP)=    1.194  1  2   238
             APW+lo
:E0_0002: E( 0)=    1.2842
             LOCAL ORBITAL
:E1_0002: E( 1)=    0.8842
             APW+lo

       K=   0.00000   0.00000   0.00000            1
:RKM  : MATRIX SIZE   675LOs:  30  RKM= 8.48  WEIGHT= 1.00  PGR:    
       EIGENVALUES ARE:
:EIG00001:      -2.1797532   -0.4005694   -0.3281975   -0.3281975   -0.3281975
:EIG00006:      -0.2899553    0.5017275    0.5017275    0.5017275    0.7558199
:EIG00011:       0.7558199    0.7558199    1.1134456    1.1134456    1.1134456
:EIG00016:       1.1627710    1.1966815    1.1966815    1.1966815    1.2676147
:EIG00021:       1.2770364    1.2770364    1.8563052    1.8563052    1.8563052
:EIG00026:       2.0407989    2.0407989    2.0407989    2.4974168    2.8080733
:EIG00031:       2.8080733    2.8252987    2.8252987    2.8252987    3.3353737
:EIG00036:       3.3353737    3.3353737    3.3968983    3.3968983    3.3968983
:EIG00041:       3.5857818    3.8997007    3.8997007    3.9921947    3.9921947
:EIG00046:       3.9921947    3.9959358    3.9959358    4.0071097    4.0071097
 
:EIG00051:       4.0071097    4.2714463    4.2927460    4.2927460    4.2927460
:EIG00056:       4.3464158    4.4010797    4.4010797    4.4010797    4.5371265
:EIG00061:       4.5371265    4.5371265    4.5378081    4.5378081    4.5378081
:EIG00066:       4.9111868    5.4788931    5.4788931    5.4788931    5.6646871
:EIG00071:       5.6646871    5.7727266    5.7727266    5.7727266    5.9083734
:EIG00076:       6.4047536    6.4047536    6.4586769    6.4586769    6.4586769
:EIG00081:       6.6582703    6.6582703    6.6582703    6.6789593    6.6789593
:EIG00086:       6.6789593    7.0156742    7.0156742    7.0156742    7.0838898
:EIG00091:       7.0838898    7.1422968    7.2426274    7.2426274    7.2632949
:EIG00096:       7.2632949    7.2632949    7.3936396    7.3936396    7.3936396
 
:EIG00101:       7.4686449    7.4686449    7.4686449    7.5537630    7.6358178
:EIG00106:       7.6358178    7.6358178    7.7848232    7.8152243    7.9181741
:EIG00111:       7.9181741    7.9247292    7.9247292    7.9247292    7.9776664
:EIG00116:       7.9776664    7.9776664    8.1639862    8.1639862    8.1639862
:EIG00121:       8.4267150    8.4267150    8.4267150
       ********************************************************

:KPT   :      NUMBER OF K-POINTS:   145

------- UO2.scfso --------
   0.0   0.0 angle (M,z), angle (M,x) deg
 
        SPIN-ORBIT EIGENVALUES:
     K=   0.00000   0.00000   0.00000            1
      MATRIX SIZE=  246   WEIGHT= 1.00
     EIGENVALUES ARE:
          -2.1797532   -2.1797532   -0.7293027   -0.7293027   -0.4005694
          -0.4005694   -0.2899605   -0.2899605   -0.1625151   -0.1625151
          -0.1625151   -0.1625151    0.4995270    0.4995270    0.4995270
           0.4995270    0.5052466    0.5052466    0.7500359    0.7500359
           0.7587316    0.7587316    0.7587316    0.7587316    1.0874680
           1.0874680    1.1074006    1.1074006    1.1074006    1.1074006
           1.1785505    1.1785505    1.1991952    1.1991952    1.1991952
           1.1991952    1.2139712    1.2139712    1.2676147    1.2676147

           1.2752270    1.2752270    1.2752270    1.2752270    1.8444986
           1.8444986    1.8444986    1.8444986    1.8796768    1.8796768
           1.9769895    1.9769895    2.0710201    2.0710201    2.0710201
           2.0710201    2.4974168    2.4974168    2.7980217    2.7980217
           2.7980217    2.7980217    2.8309084    2.8309084    2.8309084
           2.8309084    2.8343911    2.8343911    3.1480308    3.1480308
           3.3937850    3.3937850    3.3980201    3.3980201    3.3980201
           3.3980201    3.4420218    3.4420218    3.4420218    3.4420218

           3.5862159    3.5862159    3.8945011    3.8945011    3.8945011
           3.8945011    3.9921743    3.9921743    3.9922048    3.9922048
           3.9922048    3.9922048    3.9959358    3.9959358    3.9959358
           3.9959358    4.0036887    4.0036887    4.0036887    4.0036887
           4.0264810    4.0264810    4.2714463    4.2714463    4.2928533
           4.2928533    4.2929882    4.2929882    4.2929882    4.2929882
           4.3464158    4.3464158    4.4010719    4.4010719    4.4010719
           4.4010719    4.4011294    4.4011294
       ********************************************************

------- UO2.scf2 --------
:GMA  : POTENTIAL AND CHARGE CUT-OFF  12.00 Ry**.5
         Bandranges (emin - emax) and occupancy:
:BAN00018:  18    0.505247    0.753030  1.00000000
:BAN00019:  19    0.619313    0.756728  1.00000000
:BAN00020:  20    0.619313    0.756728  1.00000000
:BAN00021:  21    0.719335    0.791140  1.00000000
:BAN00022:  22    0.719335    0.791140  1.00000000
:BAN00023:  23    0.755417    0.833917  1.00000000
:BAN00024:  24    0.755417    0.833917  1.00000000
:BAN00025:  25    1.024498    1.087468  0.93247377
:BAN00026:  26    1.024498    1.087468  0.93247377
:BAN00027:  27    1.066742    1.107401  0.06752623
:BAN00028:  28    1.066742    1.107401  0.06752623
:BAN00029:  29    1.081545    1.107401  0.00000000
:BAN00030:  30    1.081545    1.107401  0.00000000
:BAN00031:  31    1.099585    1.178551  0.00000000
:BAN00032:  32    1.099585    1.178551  0.00000000
:BAN00033:  33    1.134865    1.199195  0.00000000
        Energy to separate low and high energystates:    0.97450


:NLDA  : NUMBER OF ELECTRONS          =  26.000

:FLDA  : F E R M I - ENERGY           =   1.57387




:POS001: AT.NR.   1 POSITION = 0.00000 0.00000 0.00000  MULTIPLICITY =  1

       LMMAX  5
       LM=   0 0  4 0  4 4  6 0  6 4




:POS002: AT.NR.   2 POSITION = 0.00000 0.00000 0.00000  MULTIPLICITY =  2

       LMMAX  6
       LM=   0 0  4 0  4 4  6 0  6 4 -3 2
:FER DMFT Fermi Energy   0.85430
:EORB        -57.917913046
:SUM SUM OF DMFT BAND ENERGIES         60.347949498

:CHA001: TOTAL CHARGE INSIDE SPHERE   1 =     8.256342
:PCS001: PARTIAL CHARGES SPHERE =  1 S,P,D,F,      D-EG,D-T2G 
:QTL001: 1.8047 4.2117 0.2783 1.9565 0.0000 0.0000 0.0000 0.0674 0.2350 0.0000 0.0000 0.0000
        Q-s-low E-s-low   Q-p-low E-p-low   Q-d-low E-d-low   Q-f-low E-f-low
:EPL001:  1.8045 -2.0764    4.2105 -0.2905    0.2771  0.5625    0.2482  0.7138
        Q-s-hi  E-s-hi    Q-p-hi  E-p-hi    Q-d-hi  E-d-hi    Q-f-hi  E-f-hi 
:EPH001:  0.0002  1.0697    0.0012  1.0763    0.0012  1.0722    1.7083  1.0662

:CHA002: TOTAL CHARGE INSIDE SPHERE   2 =     5.249664
:PCS002: PARTIAL CHARGES SPHERE =  2 S,P,D,F,      D-EG,D-T2G 
:QTL002: 1.5785 3.6532 0.0147 0.0026 0.0000 0.0000 0.0000 0.0053 0.0163 0.0000 0.0000 0.0000
        Q-s-low E-s-low   Q-p-low E-p-low   Q-d-low E-d-low   Q-f-low E-f-low
:EPL002:  1.5770 -0.3170    3.6464  0.6612    0.0130  0.1314    0.0021  0.0534
        Q-s-hi  E-s-hi    Q-p-hi  E-p-hi    Q-d-hi  E-d-hi    Q-f-hi  E-f-hi 
:EPH002:  0.0015  1.0568    0.0068  1.0839    0.0017  1.0724    0.0004  1.0656

:CHA  : TOTAL CHARGE INSIDE UNIT CELL =      26.000000

:ESUM  : SUM OF EIGENVALUES =           2.443157476


------- UO2.scfc --------

        1.ATOM      U  4+                21 CORE STATES
:1S 001: 1S               -8506.186656458 Ry
:2S 001: 2S               -1587.637351489 Ry
:2PP001: 2P*              -1530.882518434 Ry
:2P 001: 2P               -1249.687325606 Ry
:3S 001: 3S                -399.781416395 Ry
:3PP001: 3P*               -374.007907652 Ry
:3P 001: 3P                -309.224979092 Ry
:3DD001: 3D*               -268.412147565 Ry
:3D 001: 3D                -255.267051500 Ry
:4S 001: 4S                -100.851199186 Ry
:4PP001: 4P*                -89.257624768 Ry
:4P 001: 4P                 -72.348008740 Ry
:4DD001: 4D*                -53.883217846 Ry
:4D 001: 4D                 -50.774685524 Ry
:5S 001: 5S                 -21.446069027 Ry
:5PP001: 5P*                -16.939450083 Ry
:5P 001: 5P                 -12.909603472 Ry
:4FF001: 4F*                -26.488520981 Ry
:4F 001: 4F                 -25.678545417 Ry
:5DD001: 5D*                 -6.320741721 Ry
:5D 001: 5D                  -5.722651566 Ry

        2.ATOM      O  2-                 1 CORE STATES
:1S 002: 1S                 -35.864472857 Ry

------- UO2.scfm --------
:CINT001 Core Integral Atom   1   77.964172
:CINT002 Core Integral Atom   2    2.000000

       DENSITY AT NUCLEUS
        JATOM        VALENCE       SEMI-CORE          CORE           TOTAL
:RTO001:   1    17160.322518        0.000000 34591722.882444 34608883.204962
:RTO002:   2       14.989026        0.000000      299.338333      314.327360
     
       CHARGES OF NEW CHARGE DENSITY
:NTO   : INTERSTITIAL CHARGE =     7.244340
:NTO001: CHARGE SPHERE  1    =    86.220514
:NTO002: CHARGE SPHERE  2    =     7.249663

:NEC01: NUCLEAR AND ELECTRONIC CHARGE    108.00000   107.96418
     
       CHARGES OF OLD CHARGE DENSITY
:OTO   : INTERSTITIAL CHARGE =     7.282928
:OTO001: CHARGE SPHERE  1    =    86.217950
:OTO002: CHARGE SPHERE  2    =     7.249561

:NEC02: NUCLEAR AND ELECTRONIC CHARGE    108.00000   108.00000
     
       CONVERGENCE TEST
:DTO001: DIFFERENCE IN SPHERE  1 =  0.0034742
:DTO002: DIFFERENCE IN SPHERE  2 =  0.0012479

:DIS  :  CHARGE DISTANCE       ( 0.0034742 for atom    1 spin 1)      0.0019900
:BIG check (qbig,qrms,qtot)    0.116D-02   0.159D-02   0.199D-02
 
******************************************************
* MULTISECANT MIXING VER6 RELEASE 6.0 OPTIONS        *
* Standard Mode with controls                        *
* Regularization       1.000E-06                     *
* Trust Region Control Active                        *
* Max Number of Memory Steps    8                    *
******************************************************
 
:PLANE:  INTERSTITIAL TOTAL      2.55779 DISTAN  1.304E-01 % 
:CHARG:  CLM CHARGE   /ATOM    345.91862 DISTAN  1.311E-02 % 
 
 Step History DMIX, Red, Pred, Trust, FRMS, FABS
  2  2.5000E-02  1.0000E+00  1.0000E+00  1.0000E+00
  
:DIRM :  MEMORY  1/ 8 RESCALES  27.18
:MIX  :   PRATT  REGULARIZATION: 1.00E-06  GREED: 0.062  Expand 2.50  0.06                
     
       CHARGES OF MIXED CHARGE DENSITY
:CTO   : INTERSTITIAL CHARGE =     7.282716
:CTO001: CHARGE SPHERE  1    =    86.218146
:CTO002: CHARGE SPHERE  2    =     7.249569

:NEC03: NUCLEAR AND ELECTRONIC CHARGE    108.00000   108.00000

PW CHANGE     H    K    L       Current     Change     Residue
:PTO001:      0    0    0  9.92416268E-02 -4.170E-07 -6.387E-06
:PTO002:     -1   -1   -1  2.31741971E-01 -6.117E-08 -4.764E-06
:PTO003:      0    0   -2 -2.05583957E-03 -4.169E-06 -5.512E-05
:PTO004:      0   -2   -2  3.02130621E-01  4.722E-06  5.595E-05
:PTO005:     -1   -1   -3  1.50554591E-01 -1.057E-05 -1.422E-04
:PTO006:     -2   -2   -2 -2.33607082E-02  8.169E-06  1.048E-04
:PTO007:      0    0   -4  4.02947953E-02 -6.372E-06 -8.342E-05
:PTO008:     -1   -3   -3  2.11520021E-02 -2.044E-06 -2.951E-05
:PTO009:      0   -2   -4 -5.30943281E-02 -1.596E-05 -2.080E-04
:PTO010:     -2   -2   -4  3.06258440E-02  5.974E-06  7.574E-05
:PTO011:     -3   -3   -3 -6.43665460E-03  1.164E-05  1.505E-04
:PTO012:     -1   -1   -5 -7.88075140E-03 -8.382E-06 -1.083E-04

:ENE  : ********** TOTAL ENERGY IN Ry =       -56437.60413299


------- UO2.scf0 --------


            ---------
:ITE089: 89. ITERATION
            ---------

:NATO :    2 INDEPENDENT AND    3 TOTAL ATOMS IN UNITCELL
       SUBSTANCE: blebleble                                                   

       LATTICE                      = F   
:POT  : POTENTIAL OPTION EX_LDA EC_LDA VX_LDA VC_LDA
:LAT  : LATTICE CONSTANTS= 10.05900 10.05900 10.05900    1.571    1.571    1.571
:VOL  : UNIT CELL VOLUME =     254.45116
       MODE OF CALCULATION IS       = RELA
       NON-SPINPOLARIZED CALCULATION
:IFFT  : FFT-parameters:   80   80   80 Factor: 2.00
       ATOMNUMBER=  1 U  4+      VCOUL-ZERO = -0.33729E+00
       ATOMNUMBER=  2 O  2-      VCOUL-ZERO =  0.90384E+00
:FIT001: LUSE= 13 SIGMA OF V-XC FIT FOR ATOM  1  0.5198920E-04
:FIT001: LUSE= 13 SIGMA OF V-XC FIT FOR ATOM  1  0.5198920E-04
:FIT002: LUSE= 13 SIGMA OF V-XC FIT FOR ATOM  2  0.1755389E-03
:FIT002: LUSE= 13 SIGMA OF V-XC FIT FOR ATOM  2  0.1755389E-03
:DEN  : DENSITY INTEGRAL  =        -20916.53141904   (Ry)
       ELS_POTENTIAL_AT Z=0 and Z=0.5:  -3.49949  -3.49949
       ELS_POTENTIAL_AT Y=0 and Y=0.5:   0.00000   0.00000
:VZERO:v0,v0c,v0x  -4.24757  -3.49949  -0.74808 v5,v5c,v5x  -4.24757  -3.49949  -0.74808
:VZERY:v0,v0c,v0x  -0.90042   0.00000  -0.90042 v5,v5c,v5x  -0.90042   0.00000  -0.90042
:VZERX:v0,v0c,v0x  -0.90042   0.00000  -0.90042 v5,v5c,v5x  -0.90042   0.00000  -0.90042

------- UO2.scf1 --------

          ATOMIC SPHERE DEPENDENT PARAMETERS FOR ATOM  U  4+     
:e__0001: OVERALL ENERGY PARAMETER IS    0.8842
          OVERALL BASIS SET ON ATOM IS LAPW
:E0_0001: E( 0)=    0.8842
             APW+lo
:E0_0001: E( 0)=   -2.0884   E(BOTTOM)=   -3.436   E(TOP)=   -0.741  5  6   241
             LOCAL ORBITAL
:E1_0001: E( 1)=   -1.2800   E(BOTTOM)=   -1.703   E(TOP)= -200.000  4 -1   218
             APW+lo
:E1_0001: E( 1)=    1.2842
             LOCAL ORBITAL
:E3_0001: E( 3)=    1.1383   E(BOTTOM)=    0.349   E(TOP)=    1.927  1  2   173
             APW+lo
:E2_0001: E( 2)=    0.9077   E(BOTTOM)=    0.908   E(TOP)= -200.000  3 -1   109
             APW+lo

          ATOMIC SPHERE DEPENDENT PARAMETERS FOR ATOM  O  2-     
:e__0002: OVERALL ENERGY PARAMETER IS    0.8842
          OVERALL BASIS SET ON ATOM IS LAPW
:E0_0002: E( 0)=   -0.1844   E(BOTTOM)=   -1.563   E(TOP)=    1.194  1  2   238
             APW+lo
:E0_0002: E( 0)=    1.2842
             LOCAL ORBITAL
:E1_0002: E( 1)=    0.8842
             APW+lo

       K=   0.00000   0.00000   0.00000            1
:RKM  : MATRIX SIZE   675LOs:  30  RKM= 8.48  WEIGHT= 1.00  PGR:    
       EIGENVALUES ARE:
:EIG00001:      -2.1796344   -0.4005608   -0.3281156   -0.3281156   -0.3281156
:EIG00006:      -0.2899488    0.5017386    0.5017386    0.5017386    0.7558404
:EIG00011:       0.7558404    0.7558404    1.1136011    1.1136011    1.1136011
:EIG00016:       1.1629641    1.1967873    1.1967873    1.1967873    1.2675965
:EIG00021:       1.2770578    1.2770578    1.8563484    1.8563484    1.8563484
:EIG00026:       2.0408034    2.0408034    2.0408034    2.4973988    2.8080888
:EIG00031:       2.8080888    2.8253130    2.8253130    2.8253130    3.3354123
:EIG00036:       3.3354123    3.3354123    3.3969307    3.3969307    3.3969307
:EIG00041:       3.5858127    3.8997208    3.8997208    3.9922087    3.9922087
:EIG00046:       3.9922087    3.9959379    3.9959379    4.0071379    4.0071379
 
:EIG00051:       4.0071379    4.2714737    4.2927436    4.2927436    4.2927436
:EIG00056:       4.3463977    4.4010831    4.4010831    4.4010831    4.5371397
:EIG00061:       4.5371397    4.5371397    4.5378096    4.5378096    4.5378096
:EIG00066:       4.9112085    5.4788943    5.4788943    5.4788943    5.6647095
:EIG00071:       5.6647095    5.7727380    5.7727380    5.7727380    5.9083677
:EIG00076:       6.4047760    6.4047760    6.4587359    6.4587359    6.4587359
:EIG00081:       6.6582832    6.6582832    6.6582832    6.6789983    6.6789983
:EIG00086:       6.6789983    7.0156793    7.0156793    7.0156793    7.0838996
:EIG00091:       7.0838996    7.1423013    7.2426364    7.2426364    7.2633080
:EIG00096:       7.2633080    7.2633080    7.3936481    7.3936481    7.3936481
 
:EIG00101:       7.4686553    7.4686553    7.4686553    7.5537727    7.6358074
:EIG00106:       7.6358074    7.6358074    7.7848505    7.8152255    7.9181686
:EIG00111:       7.9181686    7.9247193    7.9247193    7.9247193    7.9776725
:EIG00116:       7.9776725    7.9776725    8.1640016    8.1640016    8.1640016
:EIG00121:       8.4267545    8.4267545    8.4267545
       ********************************************************

:KPT   :      NUMBER OF K-POINTS:   145

------- UO2.scfso --------
   0.0   0.0 angle (M,z), angle (M,x) deg
 
        SPIN-ORBIT EIGENVALUES:
     K=   0.00000   0.00000   0.00000            1
      MATRIX SIZE=  246   WEIGHT= 1.00
     EIGENVALUES ARE:
          -2.1796344   -2.1796344   -0.7292071   -0.7292071   -0.4005608
          -0.4005608   -0.2899540   -0.2899540   -0.1624396   -0.1624396
          -0.1624396   -0.1624396    0.4995384    0.4995384    0.4995384
           0.4995384    0.5052573    0.5052573    0.7500538    0.7500538
           0.7587542    0.7587542    0.7587542    0.7587542    1.0876321
           1.0876321    1.1075499    1.1075499    1.1075499    1.1075499
           1.1787356    1.1787356    1.1993064    1.1993064    1.1993064
           1.1993064    1.2140762    1.2140762    1.2675965    1.2675965

           1.2752487    1.2752487    1.2752487    1.2752487    1.8445424
           1.8445424    1.8445424    1.8445424    1.8797187    1.8797187
           1.9769969    1.9769969    2.0710235    2.0710235    2.0710235
           2.0710235    2.4973988    2.4973988    2.7980366    2.7980366
           2.7980366    2.7980366    2.8309230    2.8309230    2.8309230
           2.8309230    2.8344056    2.8344056    3.1480653    3.1480653
           3.3938172    3.3938172    3.3980525    3.3980525    3.3980525
           3.3980525    3.4420621    3.4420621    3.4420621    3.4420621

           3.5862468    3.5862468    3.8945215    3.8945215    3.8945215
           3.8945215    3.9921883    3.9921883    3.9922188    3.9922188
           3.9922188    3.9922188    3.9959379    3.9959379    3.9959379
           3.9959379    4.0037164    4.0037164    4.0037164    4.0037164
           4.0265094    4.0265094    4.2714737    4.2714737    4.2928511
           4.2928511    4.2929855    4.2929855    4.2929855    4.2929855
           4.3463977    4.3463977    4.4010752    4.4010752    4.4010752
           4.4010752    4.4011329    4.4011329
       ********************************************************

------- UO2.scf2 --------
:GMA  : POTENTIAL AND CHARGE CUT-OFF  12.00 Ry**.5
         Bandranges (emin - emax) and occupancy:
:BAN00018:  18    0.505257    0.753070  1.00000000
:BAN00019:  19    0.619331    0.756742  1.00000000
:BAN00020:  20    0.619331    0.756742  1.00000000
:BAN00021:  21    0.719353    0.791158  1.00000000
:BAN00022:  22    0.719353    0.791158  1.00000000
:BAN00023:  23    0.755438    0.833936  1.00000000
:BAN00024:  24    0.755438    0.833936  1.00000000
:BAN00025:  25    1.024613    1.087632  0.93241824
:BAN00026:  26    1.024613    1.087632  0.93241824
:BAN00027:  27    1.066870    1.107550  0.06758176
:BAN00028:  28    1.066870    1.107550  0.06758176
:BAN00029:  29    1.081682    1.107550  0.00000000
:BAN00030:  30    1.081682    1.107550  0.00000000
:BAN00031:  31    1.099722    1.178736  0.00000000
:BAN00032:  32    1.099722    1.178736  0.00000000
:BAN00033:  33    1.134994    1.199306  0.00000000
        Energy to separate low and high energystates:    0.97461


:NLDA  : NUMBER OF ELECTRONS          =  26.000

:FLDA  : F E R M I - ENERGY           =   1.57401




:POS001: AT.NR.   1 POSITION = 0.00000 0.00000 0.00000  MULTIPLICITY =  1

       LMMAX  5
       LM=   0 0  4 0  4 4  6 0  6 4




:POS002: AT.NR.   2 POSITION = 0.00000 0.00000 0.00000  MULTIPLICITY =  2

       LMMAX  6
       LM=   0 0  4 0  4 4  6 0  6 4 -3 2
:FER DMFT Fermi Energy   0.85441
:EORB        -57.917578346
:SUM SUM OF DMFT BAND ENERGIES         60.348811218

:CHA001: TOTAL CHARGE INSIDE SPHERE   1 =     8.256201
:PCS001: PARTIAL CHARGES SPHERE =  1 S,P,D,F,      D-EG,D-T2G 
:QTL001: 1.8047 4.2116 0.2783 1.9565 0.0000 0.0000 0.0000 0.0674 0.2350 0.0000 0.0000 0.0000
        Q-s-low E-s-low   Q-p-low E-p-low   Q-d-low E-d-low   Q-f-low E-f-low
:EPL001:  1.8045 -2.0763    4.2105 -0.2904    0.2771  0.5625    0.2482  0.7138
        Q-s-hi  E-s-hi    Q-p-hi  E-p-hi    Q-d-hi  E-d-hi    Q-f-hi  E-f-hi 
:EPH001:  0.0002  1.0702    0.0012  1.0764    0.0012  1.0723    1.7083  1.0663

:CHA002: TOTAL CHARGE INSIDE SPHERE   2 =     5.249670
:PCS002: PARTIAL CHARGES SPHERE =  2 S,P,D,F,      D-EG,D-T2G 
:QTL002: 1.5785 3.6533 0.0147 0.0026 0.0000 0.0000 0.0000 0.0053 0.0163 0.0000 0.0000 0.0000
        Q-s-low E-s-low   Q-p-low E-p-low   Q-d-low E-d-low   Q-f-low E-f-low
:EPL002:  1.5770 -0.3170    3.6464  0.6612    0.0130  0.1314    0.0021  0.0534
        Q-s-hi  E-s-hi    Q-p-hi  E-p-hi    Q-d-hi  E-d-hi    Q-f-hi  E-f-hi 
:EPH002:  0.0015  1.0570    0.0068  1.0840    0.0017  1.0725    0.0004  1.0658

:CHA  : TOTAL CHARGE INSIDE UNIT CELL =      26.000000

:ESUM  : SUM OF EIGENVALUES =           2.444354882


------- UO2.scfc --------

        1.ATOM      U  4+                21 CORE STATES
:1S 001: 1S               -8506.186304483 Ry
:2S 001: 2S               -1587.636996861 Ry
:2PP001: 2P*              -1530.882164369 Ry
:2P 001: 2P               -1249.686971042 Ry
:3S 001: 3S                -399.781065448 Ry
:3PP001: 3P*               -374.007555911 Ry
:3P 001: 3P                -309.224629634 Ry
:3DD001: 3D*               -268.411795477 Ry
:3D 001: 3D                -255.266699915 Ry
:4S 001: 4S                -100.850879091 Ry
:4PP001: 4P*                -89.257304392 Ry
:4P 001: 4P                 -72.347694505 Ry
:4DD001: 4D*                -53.882902869 Ry
:4D 001: 4D                 -50.774372313 Ry
:5S 001: 5S                 -21.445802501 Ry
:5PP001: 5P*                -16.939188460 Ry
:5P 001: 5P                 -12.909356428 Ry
:4FF001: 4F*                -26.488204650 Ry
:4F 001: 4F                 -25.678230005 Ry
:5DD001: 5D*                 -6.320512790 Ry
:5D 001: 5D                  -5.722428121 Ry

        2.ATOM      O  2-                 1 CORE STATES
:1S 002: 1S                 -35.864466769 Ry

------- UO2.scfm --------
:CINT001 Core Integral Atom   1   77.964169
:CINT002 Core Integral Atom   2    2.000000

       DENSITY AT NUCLEUS
        JATOM        VALENCE       SEMI-CORE          CORE           TOTAL
:RTO001:   1    17159.980270        0.000000 34591722.549237 34608882.529507
:RTO002:   2       14.988903        0.000000      299.338390      314.327293
     
       CHARGES OF NEW CHARGE DENSITY
:NTO   : INTERSTITIAL CHARGE =     7.244459
:NTO001: CHARGE SPHERE  1    =    86.220370
:NTO002: CHARGE SPHERE  2    =     7.249670

:NEC01: NUCLEAR AND ELECTRONIC CHARGE    108.00000   107.96417
     
       CHARGES OF OLD CHARGE DENSITY
:OTO   : INTERSTITIAL CHARGE =     7.282716
:OTO001: CHARGE SPHERE  1    =    86.218146
:OTO002: CHARGE SPHERE  2    =     7.249569

:NEC02: NUCLEAR AND ELECTRONIC CHARGE    108.00000   108.00000
     
       CONVERGENCE TEST
:DTO001: DIFFERENCE IN SPHERE  1 =  0.0030263
:DTO002: DIFFERENCE IN SPHERE  2 =  0.0011574

:DIS  :  CHARGE DISTANCE       ( 0.0030263 for atom    1 spin 1)      0.0017804
:BIG check (qbig,qrms,qtot)    0.101D-02   0.140D-02   0.178D-02
 
******************************************************
* MULTISECANT MIXING VER6 RELEASE 6.0 OPTIONS        *
* Standard Mode with controls                        *
* Regularization       1.000E-06                     *
* Trust Region Control Active                        *
* Max Number of Memory Steps    8                    *
******************************************************
 
:PLANE:  INTERSTITIAL TOTAL      2.55779 DISTAN  1.206E-01 % 
:CHARG:  CLM CHARGE   /ATOM    345.91866 DISTAN  1.208E-02 % 
 
 Step History DMIX, Red, Pred, Trust, FRMS, FABS
  2  2.5000E-02  1.0000E+00  1.0000E+00  1.0000E+00
  3  6.2500E-02  1.0000E+00  1.0000E+00  1.0000E+00
  
:NORMS:  Nuclear, Spectral, Froebius, Shanno-Pua   0.1065E+01  0.1044E+01  0.1044E+01  0.9258E+00
:INFO :  Number of Memory Steps    2 Skipping    0
:INFO :  SLambda=    1.0648440  Max    1.0648440

Eigenvalues, unscaled except for SY+YY
   #     SY Real        SY Imag          SS             YY         SY+YY Real      SY+YY Imag
   1   1.332268E-15   0.000000E+00  -2.220446E-16   1.999192E+00   8.273060E-04   0.000000E+00
   2   1.850887E+00   0.000000E+00   1.834717E+00   8.077928E-04   3.970078E+00   0.000000E+00
 
:INFO :  Increased using Multisecant Shanno-Phua
:INFO :  Singular value   3.970E+00 Weight  1.0000E+00 Projections   2.894E-01  8.335E-02
:INFO :  Singular value   8.273E-04 Weight  1.0000E+00 Projections  -4.066E-01 -4.921E-01
 
:DIRM :  MEMORY 2/8 RESCALE  27.15 RED 0.923 PRED 1.000 NEXT 0.271
:INFO :  Blimit    1.550E+00  1.020E+00  6.493E-01  2.649E+00
:DIRP :  |MSR1|= 8.485E-02 |PRATT|= 8.377E-02 ANGLE=   1.2 DEGREES
:DIRQ :  |MSR1|= 8.457E-02 |PRATT|= 8.359E-02 ANGLE=   0.2 DEGREES
:DIR  :  |MSR1|= 1.198E-01 |PRATT|= 1.183E-01 ANGLE=   0.8 DEGREES
:MIX  :   MSE1   REGULARIZATION: 2.00E-06  GREED: 0.097  Newton 1.00  1.01                
     
       CHARGES OF MIXED CHARGE DENSITY
:CTO   : INTERSTITIAL CHARGE =     7.280433
:CTO001: CHARGE SPHERE  1    =    86.220235
:CTO002: CHARGE SPHERE  2    =     7.249666

:NEC03: NUCLEAR AND ELECTRONIC CHARGE    108.00000   108.00000

PW CHANGE     H    K    L       Current     Change     Residue
:PTO001:      0    0    0  9.92375182E-02 -4.109E-06 -6.450E-06
:PTO002:     -1   -1   -1  2.31733565E-01 -8.406E-06 -1.256E-05
:PTO003:      0    0   -2 -2.11459192E-03 -5.875E-05 -5.616E-05
:PTO004:      0   -2   -2  3.02182452E-01  5.183E-05  4.318E-05
:PTO005:     -1   -1   -3  1.50413416E-01 -1.412E-04 -1.433E-04
:PTO006:     -2   -2   -2 -2.32688986E-02  9.181E-05  9.175E-05
:PTO007:      0    0   -4  4.02171287E-02 -7.767E-05 -7.798E-05
:PTO008:     -1   -3   -3  2.11153098E-02 -3.669E-05 -3.654E-05
:PTO009:      0   -2   -4 -5.32950105E-02 -2.007E-04 -1.966E-04
:PTO010:     -2   -2   -4  3.06924204E-02  6.658E-05  6.500E-05
:PTO011:     -3   -3   -3 -6.29738291E-03  1.393E-04  1.375E-04
:PTO012:     -1   -1   -5 -7.98182289E-03 -1.011E-04 -9.911E-05

:ENE  : ********** TOTAL ENERGY IN Ry =       -56437.60409729


------- UO2.scf0 --------


            ---------
:ITE090: 90. ITERATION
            ---------

:NATO :    2 INDEPENDENT AND    3 TOTAL ATOMS IN UNITCELL
       SUBSTANCE: blebleble                                                   

       LATTICE                      = F   
:POT  : POTENTIAL OPTION EX_LDA EC_LDA VX_LDA VC_LDA
:LAT  : LATTICE CONSTANTS= 10.05900 10.05900 10.05900    1.571    1.571    1.571
:VOL  : UNIT CELL VOLUME =     254.45116
       MODE OF CALCULATION IS       = RELA
       NON-SPINPOLARIZED CALCULATION
:IFFT  : FFT-parameters:   80   80   80 Factor: 2.00
       ATOMNUMBER=  1 U  4+      VCOUL-ZERO = -0.33696E+00
       ATOMNUMBER=  2 O  2-      VCOUL-ZERO =  0.90390E+00
:FIT001: LUSE= 13 SIGMA OF V-XC FIT FOR ATOM  1  0.4672040E-04
:FIT001: LUSE= 13 SIGMA OF V-XC FIT FOR ATOM  1  0.4672040E-04
:FIT002: LUSE= 13 SIGMA OF V-XC FIT FOR ATOM  2  0.1755078E-03
:FIT002: LUSE= 13 SIGMA OF V-XC FIT FOR ATOM  2  0.1755078E-03
:DEN  : DENSITY INTEGRAL  =        -20916.79515559   (Ry)
       ELS_POTENTIAL_AT Z=0 and Z=0.5:  -3.49958  -3.49958
       ELS_POTENTIAL_AT Y=0 and Y=0.5:   0.00000   0.00000
:VZERO:v0,v0c,v0x  -4.24751  -3.49958  -0.74793 v5,v5c,v5x  -4.24751  -3.49958  -0.74793
:VZERY:v0,v0c,v0x  -0.90037   0.00000  -0.90037 v5,v5c,v5x  -0.90037   0.00000  -0.90037
:VZERX:v0,v0c,v0x  -0.90037   0.00000  -0.90037 v5,v5c,v5x  -0.90037   0.00000  -0.90037

------- UO2.scf1 --------

          ATOMIC SPHERE DEPENDENT PARAMETERS FOR ATOM  U  4+     
:e__0001: OVERALL ENERGY PARAMETER IS    0.8842
          OVERALL BASIS SET ON ATOM IS LAPW
:E0_0001: E( 0)=    0.8842
             APW+lo
:E0_0001: E( 0)=   -2.0870   E(BOTTOM)=   -3.435   E(TOP)=   -0.739  5  6   235
             LOCAL ORBITAL
:E1_0001: E( 1)=   -1.2800   E(BOTTOM)=   -1.702   E(TOP)= -200.000  4 -1   217
             APW+lo
:E1_0001: E( 1)=    1.2842
             LOCAL ORBITAL
:E3_0001: E( 3)=    1.1400   E(BOTTOM)=    0.351   E(TOP)=    1.929  1  2   179
             APW+lo
:E2_0001: E( 2)=    0.9088   E(BOTTOM)=    0.909   E(TOP)= -200.000  3 -1   113
             APW+lo

          ATOMIC SPHERE DEPENDENT PARAMETERS FOR ATOM  O  2-     
:e__0002: OVERALL ENERGY PARAMETER IS    0.8842
          OVERALL BASIS SET ON ATOM IS LAPW
:E0_0002: E( 0)=   -0.1843   E(BOTTOM)=   -1.563   E(TOP)=    1.194  1  2   234
             APW+lo
:E0_0002: E( 0)=    1.2842
             LOCAL ORBITAL
:E1_0002: E( 1)=    0.8842
             APW+lo

       K=   0.00000   0.00000   0.00000            1
:RKM  : MATRIX SIZE   675LOs:  30  RKM= 8.48  WEIGHT= 1.00  PGR:    
       EIGENVALUES ARE:
:EIG00001:      -2.1783641   -0.4004371   -0.3272384   -0.3272384   -0.3272384
:EIG00006:      -0.2898423    0.5018865    0.5018865    0.5018865    0.7560775
:EIG00011:       0.7560775    0.7560775    1.1152761    1.1152761    1.1152761
:EIG00016:       1.1650855    1.1979050    1.1979050    1.1979050    1.2673952
:EIG00021:       1.2772852    1.2772852    1.8568361    1.8568361    1.8568361
:EIG00026:       2.0408488    2.0408488    2.0408488    2.4971768    2.8082593
:EIG00031:       2.8082593    2.8254866    2.8254866    2.8254866    3.3358397
:EIG00036:       3.3358397    3.3358397    3.3972883    3.3972883    3.3972883
:EIG00041:       3.5861687    3.8999378    3.8999378    3.9923643    3.9923643
:EIG00046:       3.9923643    3.9959868    3.9959868    4.0074594    4.0074594
 
:EIG00051:       4.0074594    4.2717768    4.2927307    4.2927307    4.2927307
:EIG00056:       4.3461677    4.4011295    4.4011295    4.4011295    4.5372921
:EIG00061:       4.5372921    4.5372921    4.5378014    4.5378014    4.5378014
:EIG00066:       4.9114577    5.4789256    5.4789256    5.4789256    5.6649541
:EIG00071:       5.6649541    5.7728758    5.7728758    5.7728758    5.9082918
:EIG00076:       6.4050134    6.4050134    6.4594000    6.4594000    6.4594000
:EIG00081:       6.6584300    6.6584300    6.6584300    6.6794171    6.6794171
:EIG00086:       6.6794171    7.0157487    7.0157487    7.0157487    7.0840219
:EIG00091:       7.0840219    7.1423470    7.2427385    7.2427385    7.2634485
:EIG00096:       7.2634485    7.2634485    7.3937575    7.3937575    7.3937575
 
:EIG00101:       7.4687682    7.4687682    7.4687682    7.5538953    7.6357011
:EIG00106:       7.6357011    7.6357011    7.7851583    7.8152458    7.9181258
:EIG00111:       7.9181258    7.9246269    7.9246269    7.9246269    7.9777450
:EIG00116:       7.9777450    7.9777450    8.1641775    8.1641775    8.1641775
:EIG00121:       8.4271939    8.4271939    8.4271939
       ********************************************************

:KPT   :      NUMBER OF K-POINTS:   145

------- UO2.scfso --------
   0.0   0.0 angle (M,z), angle (M,x) deg
 
        SPIN-ORBIT EIGENVALUES:
     K=   0.00000   0.00000   0.00000            1
      MATRIX SIZE=  246   WEIGHT= 1.00
     EIGENVALUES ARE:
          -2.1783641   -2.1783641   -0.7281845   -0.7281845   -0.4004371
          -0.4004371   -0.2898476   -0.2898476   -0.1616301   -0.1616301
          -0.1616301   -0.1616301    0.4996889    0.4996889    0.4996889
           0.4996889    0.5054012    0.5054012    0.7502661    0.7502661
           0.7590116    0.7590116    0.7590116    0.7590116    1.0894065
           1.0894065    1.1091547    1.1091547    1.1091547    1.1091547
           1.1807639    1.1807639    1.2004862    1.2004862    1.2004862
           1.2004862    1.2151853    1.2151853    1.2673952    1.2673952

           1.2754778    1.2754778    1.2754778    1.2754778    1.8450359
           1.8450359    1.8450359    1.8450359    1.8801916    1.8801916
           1.9770730    1.9770730    2.0710575    2.0710575    2.0710575
           2.0710575    2.4971768    2.4971768    2.7982059    2.7982059
           2.7982059    2.7982059    2.8310958    2.8310958    2.8310958
           2.8310958    2.8345826    2.8345826    3.1484473    3.1484473
           3.3941733    3.3941733    3.3984112    3.3984112    3.3984112
           3.3984112    3.4425081    3.4425081    3.4425081    3.4425081

           3.5866030    3.5866030    3.8947423    3.8947423    3.8947423
           3.8947423    3.9923439    3.9923439    3.9923744    3.9923744
           3.9923744    3.9923744    3.9959868    3.9959868    3.9959868
           3.9959868    4.0040323    4.0040323    4.0040323    4.0040323
           4.0268341    4.0268341    4.2717768    4.2717768    4.2928407
           4.2928407    4.2929697    4.2929697    4.2929697    4.2929697
           4.3461677    4.3461677    4.4011214    4.4011214    4.4011214
           4.4011214    4.4011798    4.4011798
       ********************************************************

------- UO2.scf2 --------
:GMA  : POTENTIAL AND CHARGE CUT-OFF  12.00 Ry**.5
         Bandranges (emin - emax) and occupancy:
:BAN00018:  18    0.505401    0.753535  1.00000000
:BAN00019:  19    0.619564    0.756927  1.00000000
:BAN00020:  20    0.619564    0.756927  1.00000000
:BAN00021:  21    0.719561    0.791376  1.00000000
:BAN00022:  22    0.719561    0.791376  1.00000000
:BAN00023:  23    0.755677    0.834164  1.00000000
:BAN00024:  24    0.755677    0.834164  1.00000000
:BAN00025:  25    1.025834    1.089406  0.93180362
:BAN00026:  26    1.025834    1.089406  0.93180362
:BAN00027:  27    1.068237    1.109155  0.06819638
:BAN00028:  28    1.068237    1.109155  0.06819638
:BAN00029:  29    1.083035    1.109155  0.00000000
:BAN00030:  30    1.083035    1.109155  0.00000000
:BAN00031:  31    1.101197    1.180764  0.00000000
:BAN00032:  32    1.101197    1.180764  0.00000000
:BAN00033:  33    1.136375    1.200486  0.00000000
        Energy to separate low and high energystates:    0.97583


:NLDA  : NUMBER OF ELECTRONS          =  26.000

:FLDA  : F E R M I - ENERGY           =   1.57546




:POS001: AT.NR.   1 POSITION = 0.00000 0.00000 0.00000  MULTIPLICITY =  1

       LMMAX  5
       LM=   0 0  4 0  4 4  6 0  6 4




:POS002: AT.NR.   2 POSITION = 0.00000 0.00000 0.00000  MULTIPLICITY =  2

       LMMAX  6
       LM=   0 0  4 0  4 4  6 0  6 4 -3 2
:FER DMFT Fermi Energy   0.85556
:EORB        -57.914512337
:SUM SUM OF DMFT BAND ENERGIES         60.358729315

:CHA001: TOTAL CHARGE INSIDE SPHERE   1 =     8.253788
:PCS001: PARTIAL CHARGES SPHERE =  1 S,P,D,F,      D-EG,D-T2G 
:QTL001: 1.8046 4.2108 0.2780 1.9553 0.0000 0.0000 0.0000 0.0674 0.2348 0.0000 0.0000 0.0000
        Q-s-low E-s-low   Q-p-low E-p-low   Q-d-low E-d-low   Q-f-low E-f-low
:EPL001:  1.8044 -2.0750    4.2096 -0.2895    0.2768  0.5626    0.2474  0.7139
        Q-s-hi  E-s-hi    Q-p-hi  E-p-hi    Q-d-hi  E-d-hi    Q-f-hi  E-f-hi 
:EPH001:  0.0002  1.0715    0.0012  1.0777    0.0012  1.0736    1.7079  1.0676

:CHA002: TOTAL CHARGE INSIDE SPHERE   2 =     5.250163
:PCS002: PARTIAL CHARGES SPHERE =  2 S,P,D,F,      D-EG,D-T2G 
:QTL002: 1.5786 3.6537 0.0147 0.0026 0.0000 0.0000 0.0000 0.0053 0.0163 0.0000 0.0000 0.0000
        Q-s-low E-s-low   Q-p-low E-p-low   Q-d-low E-d-low   Q-f-low E-f-low
:EPL002:  1.5770 -0.3169    3.6469  0.6614    0.0130  0.1319    0.0021  0.0540
        Q-s-hi  E-s-hi    Q-p-hi  E-p-hi    Q-d-hi  E-d-hi    Q-f-hi  E-f-hi 
:EPH002:  0.0015  1.0582    0.0068  1.0853    0.0017  1.0739    0.0004  1.0671

:CHA  : TOTAL CHARGE INSIDE UNIT CELL =      26.000000

:ESUM  : SUM OF EIGENVALUES =           2.457467259


------- UO2.scfc --------

        1.ATOM      U  4+                21 CORE STATES
:1S 001: 1S               -8506.182799160 Ry
:2S 001: 2S               -1587.633432432 Ry
:2PP001: 2P*              -1530.878613661 Ry
:2P 001: 2P               -1249.683407722 Ry
:3S 001: 3S                -399.777485716 Ry
:3PP001: 3P*               -374.003972444 Ry
:3P 001: 3P                -309.221061672 Ry
:3DD001: 3D*               -268.408210010 Ry
:3D 001: 3D                -255.263116964 Ry
:4S 001: 4S                -100.847564435 Ry
:4PP001: 4P*                -89.253987648 Ry
:4P 001: 4P                 -72.344432219 Ry
:4DD001: 4D*                -53.879634243 Ry
:4D 001: 4D                 -50.771119324 Ry
:5S 001: 5S                 -21.442983478 Ry
:5PP001: 5P*                -16.936418853 Ry
:5P 001: 5P                 -12.906734006 Ry
:4FF001: 4F*                -26.484920979 Ry
:4F 001: 4F                 -25.674954571 Ry
:5DD001: 5D*                 -6.318078036 Ry
:5D 001: 5D                  -5.720050280 Ry

        2.ATOM      O  2-                 1 CORE STATES
:1S 002: 1S                 -35.864364556 Ry

------- UO2.scfm --------
:CINT001 Core Integral Atom   1   77.964139
:CINT002 Core Integral Atom   2    2.000000

       DENSITY AT NUCLEUS
        JATOM        VALENCE       SEMI-CORE          CORE           TOTAL
:RTO001:   1    17155.967467        0.000000 34591719.622473 34608875.589940
:RTO002:   2       14.989479        0.000000      299.339120      314.328599
     
       CHARGES OF NEW CHARGE DENSITY
:NTO   : INTERSTITIAL CHARGE =     7.245892
:NTO001: CHARGE SPHERE  1    =    86.217927
:NTO002: CHARGE SPHERE  2    =     7.250163

:NEC01: NUCLEAR AND ELECTRONIC CHARGE    108.00000   107.96415
     
       CHARGES OF OLD CHARGE DENSITY
:OTO   : INTERSTITIAL CHARGE =     7.280433
:OTO001: CHARGE SPHERE  1    =    86.220235
:OTO002: CHARGE SPHERE  2    =     7.249666

:NEC02: NUCLEAR AND ELECTRONIC CHARGE    108.00000   108.00000
     
       CONVERGENCE TEST
:DTO001: DIFFERENCE IN SPHERE  1 =  0.0038196
:DTO002: DIFFERENCE IN SPHERE  2 =  0.0005790

:DIS  :  CHARGE DISTANCE       ( 0.0038196 for atom    1 spin 1)      0.0016592
:BIG check (qbig,qrms,qtot)    0.127D-02   0.159D-02   0.166D-02
 
******************************************************
* MULTISECANT MIXING VER6 RELEASE 6.0 OPTIONS        *
* Standard Mode with controls                        *
* Regularization       1.000E-06                     *
* Trust Region Control Active                        *
* Max Number of Memory Steps    8                    *
******************************************************
 
:PLANE:  INTERSTITIAL TOTAL      2.55775 DISTAN  3.854E-02 % 
:CHARG:  CLM CHARGE   /ATOM    345.91903 DISTAN  1.356E-03 % 
 
 Step History DMIX, Red, Pred, Trust, FRMS, FABS
  2  2.5000E-02  1.0000E+00  1.0000E+00  1.0000E+00
  3  6.2500E-02  9.2333E-01  1.0000E+00  1.0000E+00
  4  9.7397E-02  1.0000E+00  2.7072E-01  2.6494E+00
  
:NORMS:  Nuclear, Spectral, Froebius, Shanno-Pua   0.1081E+01  0.1077E+01  0.1077E+01  0.9127E+00
:INFO :  Number of Memory Steps    3 Skipping    0
:INFO :  SLambda=    1.0806607  Max    1.0806607

Eigenvalues, unscaled except for SY+YY
   #     SY Real        SY Imag          SS             YY         SY+YY Real      SY+YY Imag
   1   2.738101E+00   0.000000E+00   2.586427E+00   2.999962E+00   5.958921E+00   0.000000E+00
   2  -7.490609E-16   0.000000E+00   2.565752E-16   3.535276E-05   4.109848E-05   0.000000E+00
   3   6.707655E-06   0.000000E+00   2.452923E-06   2.773801E-06   3.047171E-06   0.000000E+00
 
:INFO :  Increased using Multisecant Shanno-Phua
:INFO :  Singular value   5.959E+00 Weight  1.0000E+00 Projections   1.096E+00 -5.747E-03
:INFO :  Singular value   4.111E-05 Weight  9.9470E-01 Projections   1.720E+00  2.982E+00
:INFO :  Singular value   3.047E-06 Weight  5.0772E-01 Projections  -2.804E+00 -1.769E+00
 
:DIRM :  MEMORY 3/8 RESCALE  21.33 RED 0.216 PRED 0.271 NEXT 0.437
:INFO :  Blimit    2.371E+00  1.003E+00  1.000E+00  4.014E+00
:DIRP :  |MSR1|= 1.277E-02 |PRATT|= 2.103E-02 ANGLE=  57.1 DEGREES
:DIRQ :  |MSR1|= 1.586E-02 |PRATT|= 9.384E-03 ANGLE=  30.4 DEGREES
:DIR  :  |MSR1|= 2.037E-02 |PRATT|= 2.303E-02 ANGLE=  54.2 DEGREES
:MIX  :   MSE1   REGULARIZATION: 3.00E-06  GREED: 0.169  Newton 1.00  0.88                
     
       CHARGES OF MIXED CHARGE DENSITY
:CTO   : INTERSTITIAL CHARGE =     7.281486
:CTO001: CHARGE SPHERE  1    =    86.218771
:CTO002: CHARGE SPHERE  2    =     7.249871

:NEC03: NUCLEAR AND ELECTRONIC CHARGE    108.00000   108.00000

PW CHANGE     H    K    L       Current     Change     Residue
:PTO001:      0    0    0  9.92405096E-02  2.991E-06 -6.555E-06
:PTO002:     -1   -1   -1  2.31714358E-01 -1.921E-05 -8.992E-05
:PTO003:      0    0   -2 -2.12603711E-03 -1.145E-05 -5.385E-05
:PTO004:      0   -2   -2  3.02164725E-01 -1.773E-05 -8.488E-05
:PTO005:     -1   -1   -3  1.50413955E-01  5.396E-07 -1.023E-04
:PTO006:     -2   -2   -2 -2.33020128E-02 -3.311E-05 -5.584E-05
:PTO007:      0    0   -4  4.02321775E-02  1.505E-05 -8.091E-07
:PTO008:     -1   -3   -3  2.10954737E-02 -1.984E-05 -8.847E-05
:PTO009:      0   -2   -4 -5.32716336E-02  2.338E-05 -2.293E-05
:PTO010:     -2   -2   -4  3.06691673E-02 -2.325E-05 -4.987E-05
:PTO011:     -3   -3   -3 -6.32540656E-03 -2.802E-05 -2.226E-05
:PTO012:     -1   -1   -5 -7.95740755E-03  2.442E-05  2.621E-05

:ENE  : ********** TOTAL ENERGY IN Ry =       -56437.60402597


------- UO2.scf0 --------


            ---------
:ITE091: 91. ITERATION
            ---------

:NATO :    2 INDEPENDENT AND    3 TOTAL ATOMS IN UNITCELL
       SUBSTANCE: blebleble                                                   

       LATTICE                      = F   
:POT  : POTENTIAL OPTION EX_LDA EC_LDA VX_LDA VC_LDA
:LAT  : LATTICE CONSTANTS= 10.05900 10.05900 10.05900    1.571    1.571    1.571
:VOL  : UNIT CELL VOLUME =     254.45116
       MODE OF CALCULATION IS       = RELA
       NON-SPINPOLARIZED CALCULATION
:IFFT  : FFT-parameters:   80   80   80 Factor: 2.00
       ATOMNUMBER=  1 U  4+      VCOUL-ZERO = -0.33726E+00
       ATOMNUMBER=  2 O  2-      VCOUL-ZERO =  0.90406E+00
:FIT001: LUSE= 13 SIGMA OF V-XC FIT FOR ATOM  1  0.4729072E-04
:FIT001: LUSE= 13 SIGMA OF V-XC FIT FOR ATOM  1  0.4729072E-04
:FIT002: LUSE= 13 SIGMA OF V-XC FIT FOR ATOM  2  0.1753532E-03
:FIT002: LUSE= 13 SIGMA OF V-XC FIT FOR ATOM  2  0.1753532E-03
:DEN  : DENSITY INTEGRAL  =        -20916.60809829   (Ry)
       ELS_POTENTIAL_AT Z=0 and Z=0.5:  -3.50001  -3.50001
       ELS_POTENTIAL_AT Y=0 and Y=0.5:   0.00000   0.00000
:VZERO:v0,v0c,v0x  -4.24801  -3.50001  -0.74799 v5,v5c,v5x  -4.24801  -3.50001  -0.74799
:VZERY:v0,v0c,v0x  -0.90041   0.00000  -0.90041 v5,v5c,v5x  -0.90041   0.00000  -0.90041
:VZERX:v0,v0c,v0x  -0.90041   0.00000  -0.90041 v5,v5c,v5x  -0.90041   0.00000  -0.90041

------- UO2.scf1 --------

          ATOMIC SPHERE DEPENDENT PARAMETERS FOR ATOM  U  4+     
:e__0001: OVERALL ENERGY PARAMETER IS    0.8842
          OVERALL BASIS SET ON ATOM IS LAPW
:E0_0001: E( 0)=    0.8842
             APW+lo
:E0_0001: E( 0)=   -2.0880   E(BOTTOM)=   -3.436   E(TOP)=   -0.740  5  6   233
             LOCAL ORBITAL
:E1_0001: E( 1)=   -1.2800   E(BOTTOM)=   -1.703   E(TOP)= -200.000  4 -1   219
             APW+lo
:E1_0001: E( 1)=    1.2842
             LOCAL ORBITAL
:E3_0001: E( 3)=    1.1388   E(BOTTOM)=    0.350   E(TOP)=    1.928  1  2   179
             APW+lo
:E2_0001: E( 2)=    0.9080   E(BOTTOM)=    0.908   E(TOP)= -200.000  3 -1   108
             APW+lo

          ATOMIC SPHERE DEPENDENT PARAMETERS FOR ATOM  O  2-     
:e__0002: OVERALL ENERGY PARAMETER IS    0.8842
          OVERALL BASIS SET ON ATOM IS LAPW
:E0_0002: E( 0)=   -0.1840   E(BOTTOM)=   -1.563   E(TOP)=    1.195  1  2   237
             APW+lo
:E0_0002: E( 0)=    1.2842
             LOCAL ORBITAL
:E1_0002: E( 1)=    0.8842
             APW+lo

       K=   0.00000   0.00000   0.00000            1
:RKM  : MATRIX SIZE   675LOs:  30  RKM= 8.48  WEIGHT= 1.00  PGR:    
       EIGENVALUES ARE:
:EIG00001:      -2.1792249   -0.4002704   -0.3278345   -0.3278345   -0.3278345
:EIG00006:      -0.2896259    0.5019905    0.5019905    0.5019905    0.7560890
:EIG00011:       0.7560890    0.7560890    1.1142106    1.1142106    1.1142106
:EIG00016:       1.1639231    1.1971451    1.1971451    1.1971451    1.2675135
:EIG00021:       1.2771045    1.2771045    1.8566833    1.8566833    1.8566833
:EIG00026:       2.0408039    2.0408039    2.0408039    2.4971975    2.8081618
:EIG00031:       2.8081618    2.8254755    2.8254755    2.8254755    3.3356454
:EIG00036:       3.3356454    3.3356454    3.3970957    3.3970957    3.3970957
:EIG00041:       3.5860967    3.8997723    3.8997723    3.9922642    3.9922642
:EIG00046:       3.9922642    3.9961049    3.9961049    4.0073505    4.0073505
 
:EIG00051:       4.0073505    4.2716164    4.2928036    4.2928036    4.2928036
:EIG00056:       4.3461438    4.4011348    4.4011348    4.4011348    4.5372259
:EIG00061:       4.5372259    4.5372259    4.5376985    4.5376985    4.5376985
:EIG00066:       4.9113695    5.4790161    5.4790161    5.4790161    5.6648164
:EIG00071:       5.6648164    5.7728761    5.7728761    5.7728761    5.9082607
:EIG00076:       6.4048342    6.4048342    6.4591029    6.4591029    6.4591029
:EIG00081:       6.6583773    6.6583773    6.6583773    6.6791349    6.6791349
:EIG00086:       6.6791349    7.0157850    7.0157850    7.0157850    7.0840234
:EIG00091:       7.0840234    7.1423290    7.2427155    7.2427155    7.2633510
:EIG00096:       7.2633510    7.2633510    7.3937565    7.3937565    7.3937565
 
:EIG00101:       7.4686756    7.4686756    7.4686756    7.5539273    7.6358017
:EIG00106:       7.6358017    7.6358017    7.7850394    7.8152453    7.9182055
:EIG00111:       7.9182055    7.9247361    7.9247361    7.9247361    7.9777367
:EIG00116:       7.9777367    7.9777367    8.1641214    8.1641214    8.1641214
:EIG00121:       8.4269791    8.4269791    8.4269791
       ********************************************************

:KPT   :      NUMBER OF K-POINTS:   145

------- UO2.scfso --------
   0.0   0.0 angle (M,z), angle (M,x) deg
 
        SPIN-ORBIT EIGENVALUES:
     K=   0.00000   0.00000   0.00000            1
      MATRIX SIZE=  246   WEIGHT= 1.00
     EIGENVALUES ARE:
          -2.1792249   -2.1792249   -0.7288824   -0.7288824   -0.4002704
          -0.4002704   -0.2896312   -0.2896312   -0.1621767   -0.1621767
          -0.1621766   -0.1621766    0.4997900    0.4997900    0.4997900
           0.4997900    0.5055097    0.5055097    0.7503123    0.7503123
           0.7589969    0.7589969    0.7589969    0.7589969    1.0883109
           1.0883109    1.1081323    1.1081323    1.1081323    1.1081323
           1.1796277    1.1796277    1.1996954    1.1996954    1.1996954
           1.1996954    1.2144211    1.2144211    1.2675135    1.2675135

           1.2752963    1.2752963    1.2752963    1.2752963    1.8448789
           1.8448789    1.8448789    1.8448789    1.8800488    1.8800488
           1.9770033    1.9770033    2.0710229    2.0710229    2.0710229
           2.0710229    2.4971975    2.4971975    2.7981380    2.7981380
           2.7981380    2.7981380    2.8310574    2.8310574    2.8310574
           2.8310574    2.8345683    2.8345683    3.1482792    3.1482792
           3.3939818    3.3939818    3.3982184    3.3982184    3.3982184
           3.3982184    3.4423025    3.4423025    3.4423025    3.4423025

           3.5865307    3.5865307    3.8945817    3.8945817    3.8945817
           3.8945817    3.9922438    3.9922438    3.9922743    3.9922743
           3.9922743    3.9922743    3.9961049    3.9961049    3.9961049
           3.9961049    4.0039202    4.0039202    4.0039202    4.0039202
           4.0267221    4.0267221    4.2716164    4.2716164    4.2929121
           4.2929121    4.2930444    4.2930444    4.2930444    4.2930444
           4.3461438    4.3461438    4.4011270    4.4011270    4.4011270
           4.4011270    4.4011845    4.4011845
       ********************************************************

------- UO2.scf2 --------
:GMA  : POTENTIAL AND CHARGE CUT-OFF  12.00 Ry**.5
         Bandranges (emin - emax) and occupancy:
:BAN00018:  18    0.505510    0.753493  1.00000000
:BAN00019:  19    0.619639    0.757055  1.00000000
:BAN00020:  20    0.619639    0.757055  1.00000000
:BAN00021:  21    0.719592    0.791444  1.00000000
:BAN00022:  22    0.719592    0.791444  1.00000000
:BAN00023:  23    0.755674    0.834232  1.00000000
:BAN00024:  24    0.755674    0.834232  1.00000000
:BAN00025:  25    1.024981    1.088311  0.93210484
:BAN00026:  26    1.024981    1.088311  0.93210484
:BAN00027:  27    1.067311    1.108132  0.06789516
:BAN00028:  28    1.067311    1.108132  0.06789516
:BAN00029:  29    1.082125    1.108132  0.00000000
:BAN00030:  30    1.082125    1.108132  0.00000000
:BAN00031:  31    1.100286    1.179628  0.00000000
:BAN00032:  32    1.100286    1.179628  0.00000000
:BAN00033:  33    1.135454    1.199695  0.00000000
        Energy to separate low and high energystates:    0.97498


:NLDA  : NUMBER OF ELECTRONS          =  26.000

:FLDA  : F E R M I - ENERGY           =   1.57452




:POS001: AT.NR.   1 POSITION = 0.00000 0.00000 0.00000  MULTIPLICITY =  1

       LMMAX  5
       LM=   0 0  4 0  4 4  6 0  6 4




:POS002: AT.NR.   2 POSITION = 0.00000 0.00000 0.00000  MULTIPLICITY =  2

       LMMAX  6
       LM=   0 0  4 0  4 4  6 0  6 4 -3 2
:FER DMFT Fermi Energy   0.85478
:EORB        -57.916624671
:SUM SUM OF DMFT BAND ENERGIES         60.355763756

:CHA001: TOTAL CHARGE INSIDE SPHERE   1 =     8.255825
:PCS001: PARTIAL CHARGES SPHERE =  1 S,P,D,F,      D-EG,D-T2G 
:QTL001: 1.8047 4.2114 0.2783 1.9564 0.0000 0.0000 0.0000 0.0675 0.2350 0.0000 0.0000 0.0000
        Q-s-low E-s-low   Q-p-low E-p-low   Q-d-low E-d-low   Q-f-low E-f-low
:EPL001:  1.8045 -2.0759    4.2102 -0.2901    0.2771  0.5628    0.2481  0.7141
        Q-s-hi  E-s-hi    Q-p-hi  E-p-hi    Q-d-hi  E-d-hi    Q-f-hi  E-f-hi 
:EPH001:  0.0002  1.0706    0.0012  1.0768    0.0012  1.0727    1.7082  1.0667

:CHA002: TOTAL CHARGE INSIDE SPHERE   2 =     5.249129
:PCS002: PARTIAL CHARGES SPHERE =  2 S,P,D,F,      D-EG,D-T2G 
:QTL002: 1.5785 3.6527 0.0147 0.0026 0.0000 0.0000 0.0000 0.0053 0.0163 0.0000 0.0000 0.0000
        Q-s-low E-s-low   Q-p-low E-p-low   Q-d-low E-d-low   Q-f-low E-f-low
:EPL002:  1.5770 -0.3167    3.6459  0.6615    0.0130  0.1318    0.0021  0.0538
        Q-s-hi  E-s-hi    Q-p-hi  E-p-hi    Q-d-hi  E-d-hi    Q-f-hi  E-f-hi 
:EPH002:  0.0015  1.0574    0.0068  1.0844    0.0017  1.0730    0.0004  1.0662

:CHA  : TOTAL CHARGE INSIDE UNIT CELL =      26.000000

:ESUM  : SUM OF EIGENVALUES =           2.452273206


------- UO2.scfc --------

        1.ATOM      U  4+                21 CORE STATES
:1S 001: 1S               -8506.185712470 Ry
:2S 001: 2S               -1587.636296806 Ry
:2PP001: 2P*              -1530.881490815 Ry
:2P 001: 2P               -1249.686272589 Ry
:3S 001: 3S                -399.780212943 Ry
:3PP001: 3P*               -374.006714482 Ry
:3P 001: 3P                -309.223771095 Ry
:3DD001: 3D*               -268.410957749 Ry
:3D 001: 3D                -255.265855592 Ry
:4S 001: 4S                -100.849965629 Ry
:4PP001: 4P*                -89.256392461 Ry
:4P 001: 4P                 -72.346775185 Ry
:4DD001: 4D*                -53.881985069 Ry
:4D 001: 4D                 -50.773452250 Ry
:5S 001: 5S                 -21.444882266 Ry
:5PP001: 5P*                -16.938279793 Ry
:5P 001: 5P                 -12.908482934 Ry
:4FF001: 4F*                -26.487278713 Ry
:4F 001: 4F                 -25.677303244 Ry
:5DD001: 5D*                 -6.319697059 Ry
:5D 001: 5D                  -5.721630093 Ry

        2.ATOM      O  2-                 1 CORE STATES
:1S 002: 1S                 -35.863933726 Ry

------- UO2.scfm --------
:CINT001 Core Integral Atom   1   77.964159
:CINT002 Core Integral Atom   2    2.000000

       DENSITY AT NUCLEUS
        JATOM        VALENCE       SEMI-CORE          CORE           TOTAL
:RTO001:   1    17158.724343        0.000000 34591723.071838 34608881.796182
:RTO002:   2       14.988012        0.000000      299.338851      314.326863
     
       CHARGES OF NEW CHARGE DENSITY
:NTO   : INTERSTITIAL CHARGE =     7.245937
:NTO001: CHARGE SPHERE  1    =    86.219984
:NTO002: CHARGE SPHERE  2    =     7.249129

:NEC01: NUCLEAR AND ELECTRONIC CHARGE    108.00000   107.96418
     
       CHARGES OF OLD CHARGE DENSITY
:OTO   : INTERSTITIAL CHARGE =     7.281486
:OTO001: CHARGE SPHERE  1    =    86.218771
:OTO002: CHARGE SPHERE  2    =     7.249871

:NEC02: NUCLEAR AND ELECTRONIC CHARGE    108.00000   108.00000
     
       CONVERGENCE TEST
:DTO001: DIFFERENCE IN SPHERE  1 =  0.0012246
:DTO002: DIFFERENCE IN SPHERE  2 =  0.0010565

:DIS  :  CHARGE DISTANCE       ( 0.0012246 for atom    1 spin 1)      0.0011125
:BIG check (qbig,qrms,qtot)    0.408D-03   0.789D-03   0.111D-02
 
******************************************************
* MULTISECANT MIXING VER6 RELEASE 6.0 OPTIONS        *
* Standard Mode with controls                        *
* Regularization       1.000E-06                     *
* Trust Region Control Active                        *
* Max Number of Memory Steps    8                    *
******************************************************
 
:PLANE:  INTERSTITIAL TOTAL      2.55769 DISTAN  1.882E-02 % 
:CHARG:  CLM CHARGE   /ATOM    345.91862 DISTAN  1.458E-03 % 
 
 Step History DMIX, Red, Pred, Trust, FRMS, FABS
  2  2.5000E-02  1.0000E+00  1.0000E+00  1.0000E+00
  3  6.2500E-02  9.2333E-01  1.0000E+00  1.0000E+00
  4  9.7397E-02  2.1643E-01  2.7072E-01  2.6494E+00
  5  1.6911E-01  1.0000E+00  4.3679E-01  4.0137E+00
  
:NORMS:  Nuclear, Spectral, Froebius, Shanno-Pua   0.1275E+01  0.1076E+01  0.1127E+01  0.9054E+00
:INFO :  Number of Memory Steps    4 Skipping    0
:INFO :  SLambda=    1.2752788  Max    1.2752788

Eigenvalues, unscaled except for SY+YY
   #     SY Real        SY Imag          SS             YY         SY+YY Real      SY+YY Imag
   1   3.270368E+00   0.000000E+00   3.090797E+00   3.579814E+00   7.749058E+00   0.000000E+00
   2   1.501175E-01   0.000000E+00   5.736914E-02   4.201450E-01   6.129743E-01   0.000000E+00
   3   2.300622E-06   0.000000E+00  -2.052904E-15   3.845287E-05   4.062935E-05   0.000000E+00
   4   1.403462E-15   0.000000E+00   2.258527E-07   2.746312E-06   2.955476E-06   0.000000E+00
 
:INFO :  Increased using Multisecant Shanno-Phua
:INFO :  Singular value   7.751E+00 Weight  1.0000E+00 Projections   9.872E-01  6.021E-03
:INFO :  Singular value   6.128E-01 Weight  1.0000E+00 Projections  -4.593E-02  2.138E-03
:INFO :  Singular value   4.063E-05 Weight  9.9230E-01 Projections  -9.284E-01  1.355E+00
:INFO :  Singular value   2.955E-06 Weight  4.0532E-01 Projections   3.392E-02  5.999E-02
 
:DIRM :  MEMORY 4/8 RESCALE  21.25 RED 0.626 PRED 0.437 NEXT 0.259
:INFO :  Blimit    3.161E+00  1.185E+00  1.000E+00  4.740E+00
:DIRP :  |MSR1|= 4.375E-03 |PRATT|= 1.023E-02 ANGLE=  40.3 DEGREES
:DIRQ :  |MSR1|= 5.200E-03 |PRATT|= 1.009E-02 ANGLE=  20.0 DEGREES
:DIR  :  |MSR1|= 6.795E-03 |PRATT|= 1.437E-02 ANGLE=  31.3 DEGREES
:MIX  :   MSE1   REGULARIZATION: 3.58E-06  GREED: 0.200  Newton 1.00  0.47                
     
       CHARGES OF MIXED CHARGE DENSITY
:CTO   : INTERSTITIAL CHARGE =     7.281629
:CTO001: CHARGE SPHERE  1    =    86.218736
:CTO002: CHARGE SPHERE  2    =     7.249818

:NEC03: NUCLEAR AND ELECTRONIC CHARGE    108.00000   108.00000

PW CHANGE     H    K    L       Current     Change     Residue
:PTO001:      0    0    0  9.92411882E-02  6.786E-07 -5.404E-06
:PTO002:     -1   -1   -1  2.31709873E-01 -4.485E-06 -1.622E-05
:PTO003:      0    0   -2 -2.13190421E-03 -5.867E-06  1.239E-05
:PTO004:      0   -2   -2  3.02163156E-01 -1.570E-06 -4.666E-05
:PTO005:     -1   -1   -3  1.50399808E-01 -1.415E-05 -3.967E-05
:PTO006:     -2   -2   -2 -2.32986035E-02  3.409E-06  1.717E-05
:PTO007:      0    0   -4  4.02269683E-02 -5.209E-06 -1.790E-05
:PTO008:     -1   -3   -3  2.10855043E-02 -9.969E-06 -2.574E-05
:PTO009:      0   -2   -4 -5.32848426E-02 -1.321E-05 -9.635E-06
:PTO010:     -2   -2   -4  3.06681402E-02 -1.027E-06 -1.754E-05
:PTO011:     -3   -3   -3 -6.31814256E-03  7.264E-06  8.326E-06
:PTO012:     -1   -1   -5 -7.96081356E-03 -3.406E-06 -4.703E-07

:ENE  : ********** TOTAL ENERGY IN Ry =       -56437.60408200


------- UO2.scf0 --------


            ---------
:ITE092: 92. ITERATION
            ---------

:NATO :    2 INDEPENDENT AND    3 TOTAL ATOMS IN UNITCELL
       SUBSTANCE: blebleble                                                   

       LATTICE                      = F   
:POT  : POTENTIAL OPTION EX_LDA EC_LDA VX_LDA VC_LDA
:LAT  : LATTICE CONSTANTS= 10.05900 10.05900 10.05900    1.571    1.571    1.571
:VOL  : UNIT CELL VOLUME =     254.45116
       MODE OF CALCULATION IS       = RELA
       NON-SPINPOLARIZED CALCULATION
:IFFT  : FFT-parameters:   80   80   80 Factor: 2.00
       ATOMNUMBER=  1 U  4+      VCOUL-ZERO = -0.33726E+00
       ATOMNUMBER=  2 O  2-      VCOUL-ZERO =  0.90406E+00
:FIT001: LUSE= 13 SIGMA OF V-XC FIT FOR ATOM  1  0.4692855E-04
:FIT001: LUSE= 13 SIGMA OF V-XC FIT FOR ATOM  1  0.4692855E-04
:FIT002: LUSE= 13 SIGMA OF V-XC FIT FOR ATOM  2  0.1753189E-03
:FIT002: LUSE= 13 SIGMA OF V-XC FIT FOR ATOM  2  0.1753189E-03
:DEN  : DENSITY INTEGRAL  =        -20916.60303841   (Ry)
       ELS_POTENTIAL_AT Z=0 and Z=0.5:  -3.50003  -3.50003
       ELS_POTENTIAL_AT Y=0 and Y=0.5:   0.00000   0.00000
:VZERO:v0,v0c,v0x  -4.24804  -3.50003  -0.74801 v5,v5c,v5x  -4.24804  -3.50003  -0.74801
:VZERY:v0,v0c,v0x  -0.90041   0.00000  -0.90041 v5,v5c,v5x  -0.90041   0.00000  -0.90041
:VZERX:v0,v0c,v0x  -0.90041   0.00000  -0.90041 v5,v5c,v5x  -0.90041   0.00000  -0.90041

------- UO2.scf1 --------

          ATOMIC SPHERE DEPENDENT PARAMETERS FOR ATOM  U  4+     
:e__0001: OVERALL ENERGY PARAMETER IS    0.8842
          OVERALL BASIS SET ON ATOM IS LAPW
:E0_0001: E( 0)=    0.8842
             APW+lo
:E0_0001: E( 0)=   -2.0880   E(BOTTOM)=   -3.436   E(TOP)=   -0.740  5  6   231
             LOCAL ORBITAL
:E1_0001: E( 1)=   -1.2800   E(BOTTOM)=   -1.703   E(TOP)= -200.000  4 -1   218
             APW+lo
:E1_0001: E( 1)=    1.2842
             LOCAL ORBITAL
:E3_0001: E( 3)=    1.1388   E(BOTTOM)=    0.350   E(TOP)=    1.928  1  2   175
             APW+lo
:E2_0001: E( 2)=    0.9080   E(BOTTOM)=    0.908   E(TOP)= -200.000  3 -1   110
             APW+lo

          ATOMIC SPHERE DEPENDENT PARAMETERS FOR ATOM  O  2-     
:e__0002: OVERALL ENERGY PARAMETER IS    0.8842
          OVERALL BASIS SET ON ATOM IS LAPW
:E0_0002: E( 0)=   -0.1841   E(BOTTOM)=   -1.563   E(TOP)=    1.195  1  2   238
             APW+lo
:E0_0002: E( 0)=    1.2842
             LOCAL ORBITAL
:E1_0002: E( 1)=    0.8842
             APW+lo

       K=   0.00000   0.00000   0.00000            1
:RKM  : MATRIX SIZE   675LOs:  30  RKM= 8.48  WEIGHT= 1.00  PGR:    
       EIGENVALUES ARE:
:EIG00001:      -2.1792337   -0.4002933   -0.3278394   -0.3278394   -0.3278394
:EIG00006:      -0.2896532    0.5019763    0.5019763    0.5019763    0.7560645
:EIG00011:       0.7560645    0.7560645    1.1142056    1.1142056    1.1142056
:EIG00016:       1.1639370    1.1971164    1.1971164    1.1971164    1.2675043
:EIG00021:       1.2771044    1.2771044    1.8566675    1.8566675    1.8566675
:EIG00026:       2.0408022    2.0408022    2.0408022    2.4971755    2.8081616
:EIG00031:       2.8081616    2.8254789    2.8254789    2.8254789    3.3356392
:EIG00036:       3.3356392    3.3356392    3.3971018    3.3971018    3.3971018
:EIG00041:       3.5860894    3.8997781    3.8997781    3.9922682    3.9922682
:EIG00046:       3.9922682    3.9961047    3.9961047    4.0073508    4.0073508
 
:EIG00051:       4.0073508    4.2716186    4.2928060    4.2928060    4.2928060
:EIG00056:       4.3461225    4.4011393    4.4011393    4.4011393    4.5372333
:EIG00061:       4.5372333    4.5372333    4.5376844    4.5376844    4.5376844
:EIG00066:       4.9113749    5.4790113    5.4790113    5.4790113    5.6648117
:EIG00071:       5.6648117    5.7728710    5.7728710    5.7728710    5.9082506
:EIG00076:       6.4048308    6.4048308    6.4591080    6.4591080    6.4591080
:EIG00081:       6.6583761    6.6583761    6.6583761    6.6791308    6.6791308
:EIG00086:       6.6791308    7.0157825    7.0157825    7.0157825    7.0840256
:EIG00091:       7.0840256    7.1423147    7.2427076    7.2427076    7.2633483
:EIG00096:       7.2633483    7.2633483    7.3937642    7.3937642    7.3937642
 
:EIG00101:       7.4686792    7.4686792    7.4686792    7.5539247    7.6358010
:EIG00106:       7.6358010    7.6358010    7.7850369    7.8152541    7.9182180
:EIG00111:       7.9182180    7.9247452    7.9247452    7.9247452    7.9777368
:EIG00116:       7.9777368    7.9777368    8.1641227    8.1641227    8.1641227
:EIG00121:       8.4269783    8.4269783    8.4269783
       ********************************************************

:KPT   :      NUMBER OF K-POINTS:   145

------- UO2.scfso --------
   0.0   0.0 angle (M,z), angle (M,x) deg
 
        SPIN-ORBIT EIGENVALUES:
     K=   0.00000   0.00000   0.00000            1
      MATRIX SIZE=  246   WEIGHT= 1.00
     EIGENVALUES ARE:
          -2.1792337   -2.1792337   -0.7288887   -0.7288887   -0.4002933
          -0.4002933   -0.2896585   -0.2896585   -0.1621809   -0.1621809
          -0.1621809   -0.1621809    0.4997760    0.4997760    0.4997760
           0.4997760    0.5054952    0.5054952    0.7502876    0.7502876
           0.7589726    0.7589726    0.7589726    0.7589726    1.0883090
           1.0883090    1.1081241    1.1081241    1.1081241    1.1081241
           1.1796383    1.1796383    1.1996696    1.1996696    1.1996696
           1.1996696    1.2143932    1.2143932    1.2675043    1.2675043

           1.2752961    1.2752961    1.2752961    1.2752961    1.8448632
           1.8448632    1.8448632    1.8448632    1.8800329    1.8800329
           1.9770025    1.9770025    2.0710207    2.0710207    2.0710207
           2.0710207    2.4971755    2.4971755    2.7981385    2.7981385
           2.7981385    2.7981385    2.8310598    2.8310598    2.8310598
           2.8310598    2.8345718    2.8345718    3.1482728    3.1482728
           3.3939878    3.3939878    3.3982243    3.3982243    3.3982243
           3.3982243    3.4422964    3.4422964    3.4422964    3.4422964

           3.5865234    3.5865234    3.8945872    3.8945872    3.8945872
           3.8945872    3.9922478    3.9922478    3.9922784    3.9922784
           3.9922784    3.9922784    3.9961047    3.9961047    3.9961047
           3.9961047    4.0039207    4.0039207    4.0039207    4.0039207
           4.0267226    4.0267226    4.2716186    4.2716186    4.2929143
           4.2929143    4.2930468    4.2930468    4.2930468    4.2930468
           4.3461225    4.3461225    4.4011314    4.4011314    4.4011314
           4.4011314    4.4011889    4.4011889
       ********************************************************

------- UO2.scf2 --------
:GMA  : POTENTIAL AND CHARGE CUT-OFF  12.00 Ry**.5
         Bandranges (emin - emax) and occupancy:
:BAN00018:  18    0.505495    0.753475  1.00000000
:BAN00019:  19    0.619622    0.757032  1.00000000
:BAN00020:  20    0.619622    0.757032  1.00000000
:BAN00021:  21    0.719572    0.791417  1.00000000
:BAN00022:  22    0.719572    0.791417  1.00000000
:BAN00023:  23    0.755651    0.834204  1.00000000
:BAN00024:  24    0.755651    0.834204  1.00000000
:BAN00025:  25    1.024967    1.088309  0.93209004
:BAN00026:  26    1.024967    1.088309  0.93209004
:BAN00027:  27    1.067297    1.108124  0.06790996
:BAN00028:  28    1.067297    1.108124  0.06790996
:BAN00029:  29    1.082105    1.108124  0.00000000
:BAN00030:  30    1.082105    1.108124  0.00000000
:BAN00031:  31    1.100276    1.179638  0.00000000
:BAN00032:  32    1.100276    1.179638  0.00000000
:BAN00033:  33    1.135441    1.199670  0.00000000
        Energy to separate low and high energystates:    0.97497


:NLDA  : NUMBER OF ELECTRONS          =  26.000

:FLDA  : F E R M I - ENERGY           =   1.57451




:POS001: AT.NR.   1 POSITION = 0.00000 0.00000 0.00000  MULTIPLICITY =  1

       LMMAX  5
       LM=   0 0  4 0  4 4  6 0  6 4




:POS002: AT.NR.   2 POSITION = 0.00000 0.00000 0.00000  MULTIPLICITY =  2

       LMMAX  6
       LM=   0 0  4 0  4 4  6 0  6 4 -3 2
:FER DMFT Fermi Energy   0.85477
:EORB        -57.916637342
:SUM SUM OF DMFT BAND ENERGIES         60.355355113

:CHA001: TOTAL CHARGE INSIDE SPHERE   1 =     8.255870
:PCS001: PARTIAL CHARGES SPHERE =  1 S,P,D,F,      D-EG,D-T2G 
:QTL001: 1.8047 4.2114 0.2783 1.9564 0.0000 0.0000 0.0000 0.0675 0.2350 0.0000 0.0000 0.0000
        Q-s-low E-s-low   Q-p-low E-p-low   Q-d-low E-d-low   Q-f-low E-f-low
:EPL001:  1.8045 -2.0759    4.2102 -0.2902    0.2771  0.5627    0.2482  0.7141
        Q-s-hi  E-s-hi    Q-p-hi  E-p-hi    Q-d-hi  E-d-hi    Q-f-hi  E-f-hi 
:EPH001:  0.0002  1.0706    0.0012  1.0768    0.0012  1.0727    1.7083  1.0667

:CHA002: TOTAL CHARGE INSIDE SPHERE   2 =     5.249193
:PCS002: PARTIAL CHARGES SPHERE =  2 S,P,D,F,      D-EG,D-T2G 
[...]
:RTO001:   1    17158.724097        0.000000 34591723.248691 34608881.972788
:RTO002:   2       14.988144        0.000000      299.339009      314.327153
     
       CHARGES OF NEW CHARGE DENSITY
:NTO   : INTERSTITIAL CHARGE =     7.245764
:NTO001: CHARGE SPHERE  1    =    86.220029
:NTO002: CHARGE SPHERE  2    =     7.249193

:NEC01: NUCLEAR AND ELECTRONIC CHARGE    108.00000   107.96418
     
       CHARGES OF OLD CHARGE DENSITY
:OTO   : INTERSTITIAL CHARGE =     7.281629
:OTO001: CHARGE SPHERE  1    =    86.218736
:OTO002: CHARGE SPHERE  2    =     7.249818

:NEC02: NUCLEAR AND ELECTRONIC CHARGE    108.00000   108.00000
     
       CONVERGENCE TEST
:DTO001: DIFFERENCE IN SPHERE  1 =  0.0013356
:DTO002: DIFFERENCE IN SPHERE  2 =  0.0008480

:DIS  :  CHARGE DISTANCE       ( 0.0013356 for atom    1 spin 1)      0.0010105
:BIG check (qbig,qrms,qtot)    0.445D-03   0.733D-03   0.101D-02
 
******************************************************
* MULTISECANT MIXING VER6 RELEASE 6.0 OPTIONS        *
* Standard Mode with controls                        *
* Regularization       1.000E-06                     *
* Trust Region Control Active                        *
* Max Number of Memory Steps    8                    *
******************************************************
 
:PLANE:  INTERSTITIAL TOTAL      2.55767 DISTAN  1.336E-02 % 
:CHARG:  CLM CHARGE   /ATOM    345.91859 DISTAN  7.421E-04 % 
 
 Step History DMIX, Red, Pred, Trust, FRMS, FABS
  2  2.5000E-02  1.0000E+00  1.0000E+00  1.0000E+00
  3  6.2500E-02  9.2333E-01  1.0000E+00  1.0000E+00
  4  9.7397E-02  2.1643E-01  2.7072E-01  2.6494E+00
  5  1.6911E-01  6.2598E-01  4.3679E-01  4.0137E+00
  6  2.0000E-01  1.0000E+00  2.5935E-01  4.7399E+00
  
:NORMS:  Nuclear, Spectral, Froebius, Shanno-Pua   0.1312E+01  0.1068E+01  0.1136E+01  0.9127E+00
:INFO :  Number of Memory Steps    5 Skipping    0
:INFO :  SLambda=    1.3333333  Max    1.3333333

Eigenvalues, unscaled except for SY+YY
   #     SY Real        SY Imag          SS             YY         SY+YY Real      SY+YY Imag
   1   3.956453E+00   0.000000E+00   3.746006E+00   4.270254E+00   9.545299E+00   0.000000E+00
   2   2.747944E-01   0.000000E+00   1.217989E-01   6.936881E-01   1.058967E+00   0.000000E+00
   3   1.396033E-02   0.000000E+00   5.473891E-03   3.603654E-02   5.599154E-02   0.000000E+00
   4   1.085048E-06   0.000000E+00  -1.578716E-16   1.923392E-05   2.033018E-05   0.000000E+00
   5  -8.378940E-17   0.000000E+00   1.417089E-07   1.738531E-06   1.916433E-06   0.000000E+00
 
:INFO :  Singular value   9.550E+00 Weight  1.0000E+00 Projections   7.753E-01  2.159E-03
:INFO :  Singular value   1.059E+00 Weight  1.0000E+00 Projections  -2.466E-01  2.111E-04
:INFO :  Singular value   5.599E-02 Weight  1.0000E+00 Projections  -5.102E-01 -2.882E-02
:INFO :  Singular value   2.033E-05 Weight  9.5774E-01 Projections   1.879E-02 -9.384E-01
:INFO :  Singular value   1.916E-06 Weight  1.6764E-01 Projections  -1.287E-02  2.029E-01
 
:DIRM :  MEMORY 5/8 RESCALE  19.98 RED 0.613 PRED 0.259 NEXT 0.246
:INFO :  Blimit    3.772E+00  1.249E+00  1.000E+00  4.995E+00
:DIRP :  |MSR1|= 1.900E-03 |PRATT|= 6.829E-03 ANGLE=  43.4 DEGREES
:DIRQ :  |MSR1|= 1.820E-03 |PRATT|= 5.134E-03 ANGLE=  28.5 DEGREES
:DIR  :  |MSR1|= 2.631E-03 |PRATT|= 8.544E-03 ANGLE=  38.3 DEGREES
:MIX  :   MSE1   REGULARIZATION: 4.27E-06  GREED: 0.200  Newton 1.00  0.31                
     
       CHARGES OF MIXED CHARGE DENSITY
:CTO   : INTERSTITIAL CHARGE =     7.281827
:CTO001: CHARGE SPHERE  1    =    86.218795
:CTO002: CHARGE SPHERE  2    =     7.249689

:NEC03: NUCLEAR AND ELECTRONIC CHARGE    108.00000   108.00000

PW CHANGE     H    K    L       Current     Change     Residue
:PTO001:      0    0    0  9.92415692E-02  3.810E-07 -6.693E-06
:PTO002:     -1   -1   -1  2.31706558E-01 -3.314E-06 -1.201E-05
:PTO003:      0    0   -2 -2.13225461E-03 -3.504E-07  1.754E-05
:PTO004:      0   -2   -2  3.02157363E-01 -5.792E-06 -4.287E-05
:PTO005:     -1   -1   -3  1.50391792E-01 -8.016E-06 -2.538E-05
:PTO006:     -2   -2   -2 -2.32977765E-02  8.270E-07  1.179E-05
:PTO007:      0    0   -4  4.02246387E-02 -2.330E-06 -1.143E-05
:PTO008:     -1   -3   -3  2.10761541E-02 -9.350E-06 -1.713E-05
:PTO009:      0   -2   -4 -5.32883741E-02 -3.532E-06  2.459E-06
:PTO010:     -2   -2   -4  3.06625617E-02 -5.579E-06 -1.699E-05
:PTO011:     -3   -3   -3 -6.31758656E-03  5.560E-07 -3.788E-07
:PTO012:     -1   -1   -5 -7.95862921E-03  2.184E-06  4.762E-06

:ENE  : ********** TOTAL ENERGY IN Ry =       -56437.60408001


------- UO2.scf0 --------


            ---------
:ITE093: 93. ITERATION
            ---------

:NATO :    2 INDEPENDENT AND    3 TOTAL ATOMS IN UNITCELL
       SUBSTANCE: blebleble                                                   

       LATTICE                      = F   
:POT  : POTENTIAL OPTION EX_LDA EC_LDA VX_LDA VC_LDA
:LAT  : LATTICE CONSTANTS= 10.05900 10.05900 10.05900    1.571    1.571    1.571
:VOL  : UNIT CELL VOLUME =     254.45116
       MODE OF CALCULATION IS       = RELA
       NON-SPINPOLARIZED CALCULATION
:IFFT  : FFT-parameters:   80   80   80 Factor: 2.00
       ATOMNUMBER=  1 U  4+      VCOUL-ZERO = -0.33723E+00
       ATOMNUMBER=  2 O  2-      VCOUL-ZERO =  0.90403E+00
:FIT001: LUSE= 13 SIGMA OF V-XC FIT FOR ATOM  1  0.4674493E-04
:FIT001: LUSE= 13 SIGMA OF V-XC FIT FOR ATOM  1  0.4674493E-04
:FIT002: LUSE= 13 SIGMA OF V-XC FIT FOR ATOM  2  0.1753061E-03
:FIT002: LUSE= 13 SIGMA OF V-XC FIT FOR ATOM  2  0.1753061E-03
:DEN  : DENSITY INTEGRAL  =        -20916.60963752   (Ry)
       ELS_POTENTIAL_AT Z=0 and Z=0.5:  -3.49994  -3.49994
       ELS_POTENTIAL_AT Y=0 and Y=0.5:   0.00000   0.00000
:VZERO:v0,v0c,v0x  -4.24798  -3.49994  -0.74804 v5,v5c,v5x  -4.24798  -3.49994  -0.74804
:VZERY:v0,v0c,v0x  -0.90042   0.00000  -0.90042 v5,v5c,v5x  -0.90042   0.00000  -0.90042
:VZERX:v0,v0c,v0x  -0.90042   0.00000  -0.90042 v5,v5c,v5x  -0.90042   0.00000  -0.90042

------- UO2.scf1 --------

          ATOMIC SPHERE DEPENDENT PARAMETERS FOR ATOM  U  4+     
:e__0001: OVERALL ENERGY PARAMETER IS    0.8842
          OVERALL BASIS SET ON ATOM IS LAPW
:E0_0001: E( 0)=    0.8842
             APW+lo
:E0_0001: E( 0)=   -2.0879   E(BOTTOM)=   -3.436   E(TOP)=   -0.740  5  6   230
             LOCAL ORBITAL
:E1_0001: E( 1)=   -1.2800   E(BOTTOM)=   -1.703   E(TOP)= -200.000  4 -1   218
             APW+lo
:E1_0001: E( 1)=    1.2842
             LOCAL ORBITAL
:E3_0001: E( 3)=    1.1389   E(BOTTOM)=    0.350   E(TOP)=    1.928  1  2   180
             APW+lo
:E2_0001: E( 2)=    0.9081   E(BOTTOM)=    0.908   E(TOP)= -200.000  3 -1   112
             APW+lo

          ATOMIC SPHERE DEPENDENT PARAMETERS FOR ATOM  O  2-     
:e__0002: OVERALL ENERGY PARAMETER IS    0.8842
          OVERALL BASIS SET ON ATOM IS LAPW
:E0_0002: E( 0)=   -0.1842   E(BOTTOM)=   -1.563   E(TOP)=    1.195  1  2   237
             APW+lo
:E0_0002: E( 0)=    1.2842
             LOCAL ORBITAL
:E1_0002: E( 1)=    0.8842
             APW+lo

       K=   0.00000   0.00000   0.00000            1
:RKM  : MATRIX SIZE   675LOs:  30  RKM= 8.48  WEIGHT= 1.00  PGR:    
       EIGENVALUES ARE:
:EIG00001:      -2.1791900   -0.4003748   -0.3278075   -0.3278075   -0.3278075
:EIG00006:      -0.2897499    0.5019176    0.5019176    0.5019176    0.7560038
:EIG00011:       0.7560038    0.7560038    1.1142569    1.1142569    1.1142569
:EIG00016:       1.1639873    1.1971277    1.1971277    1.1971277    1.2674861
:EIG00021:       1.2771201    1.2771201    1.8566279    1.8566279    1.8566279
:EIG00026:       2.0408052    2.0408052    2.0408052    2.4971608    2.8081644
:EIG00031:       2.8081644    2.8254667    2.8254667    2.8254667    3.3356279
:EIG00036:       3.3356279    3.3356279    3.3971142    3.3971142    3.3971142
:EIG00041:       3.5860569    3.8998002    3.8998002    3.9922791    3.9922791
:EIG00046:       3.9922791    3.9960715    3.9960715    4.0073404    4.0073404
 
:EIG00051:       4.0073404    4.2716257    4.2927943    4.2927943    4.2927943
:EIG00056:       4.3461186    4.4011380    4.4011380    4.4011380    4.5372412
:EIG00061:       4.5372412    4.5372412    4.5376871    4.5376871    4.5376871
:EIG00066:       4.9113739    5.4789802    5.4789802    5.4789802    5.6648088
:EIG00071:       5.6648088    5.7728487    5.7728487    5.7728487    5.9082488
:EIG00076:       6.4048406    6.4048406    6.4591090    6.4591090    6.4591090
:EIG00081:       6.6583703    6.6583703    6.6583703    6.6791430    6.6791430
:EIG00086:       6.6791430    7.0157626    7.0157626    7.0157626    7.0840144
:EIG00091:       7.0840144    7.1422935    7.2426900    7.2426900    7.2633498
:EIG00096:       7.2633498    7.2633498    7.3937627    7.3937627    7.3937627
 
:EIG00101:       7.4686919    7.4686919    7.4686919    7.5539001    7.6357884
:EIG00106:       7.6357884    7.6357884    7.7850264    7.8152638    7.9182224
:EIG00111:       7.9182224    7.9247432    7.9247432    7.9247432    7.9777300
:EIG00116:       7.9777300    7.9777300    8.1641171    8.1641171    8.1641171
:EIG00121:       8.4269774    8.4269774    8.4269774
       ********************************************************

:KPT   :      NUMBER OF K-POINTS:   145

------- UO2.scfso --------
   0.0   0.0 angle (M,z), angle (M,x) deg
 
        SPIN-ORBIT EIGENVALUES:
     K=   0.00000   0.00000   0.00000            1
      MATRIX SIZE=  246   WEIGHT= 1.00
     EIGENVALUES ARE:
          -2.1791900   -2.1791900   -0.7288514   -0.7288514   -0.4003748
          -0.4003748   -0.2897551   -0.2897551   -0.1621521   -0.1621521
          -0.1621520   -0.1621520    0.4997179    0.4997179    0.4997179
           0.4997179    0.5054356    0.5054356    0.7502214    0.7502214
           0.7589159    0.7589159    0.7589159    0.7589159    1.0883607
           1.0883607    1.1081692    1.1081692    1.1081692    1.1081692
           1.1796885    1.1796885    1.1996848    1.1996848    1.1996848
           1.1996848    1.2144076    1.2144076    1.2674861    1.2674861

           1.2753117    1.2753117    1.2753117    1.2753117    1.8448241
           1.8448241    1.8448241    1.8448241    1.8799925    1.8799925
           1.9770089    1.9770089    2.0710220    2.0710220    2.0710220
           2.0710220    2.4971608    2.4971608    2.7981360    2.7981360
           2.7981360    2.7981360    2.8310525    2.8310525    2.8310525
           2.8310525    2.8345602    2.8345602    3.1482600    3.1482600
           3.3940001    3.3940001    3.3982365    3.3982365    3.3982365
           3.3982365    3.4422858    3.4422858    3.4422858    3.4422858

           3.5864910    3.5864910    3.8946074    3.8946074    3.8946074
           3.8946074    3.9922587    3.9922587    3.9922893    3.9922893
           3.9922893    3.9922893    3.9960715    3.9960715    3.9960715
           3.9960715    4.0039118    4.0039118    4.0039118    4.0039118
           4.0267128    4.0267128    4.2716257    4.2716257    4.2929025
           4.2929025    4.2930352    4.2930352    4.2930352    4.2930352
           4.3461186    4.3461186    4.4011301    4.4011301    4.4011301
           4.4011301    4.4011876    4.4011876
       ********************************************************

------- UO2.scf2 --------
:GMA  : POTENTIAL AND CHARGE CUT-OFF  12.00 Ry**.5
         Bandranges (emin - emax) and occupancy:
:BAN00018:  18    0.505436    0.753410  1.00000000
:BAN00019:  19    0.619557    0.756952  1.00000000
:BAN00020:  20    0.619557    0.756952  1.00000000
:BAN00021:  21    0.719516    0.791343  1.00000000
:BAN00022:  22    0.719516    0.791343  1.00000000
:BAN00023:  23    0.755595    0.834127  1.00000000
:BAN00024:  24    0.755595    0.834127  1.00000000
:BAN00025:  25    1.025008    1.088361  0.93206858
:BAN00026:  26    1.025008    1.088361  0.93206858
:BAN00027:  27    1.067340    1.108169  0.06793141
:BAN00028:  28    1.067340    1.108169  0.06793141
:BAN00029:  29    1.082146    1.108169  0.00000000
:BAN00030:  30    1.082146    1.108169  0.00000000
:BAN00031:  31    1.100308    1.179688  0.00000000
:BAN00032:  32    1.100308    1.179688  0.00000000
:BAN00033:  33    1.135481    1.199685  0.00000000
        Energy to separate low and high energystates:    0.97501


:NLDA  : NUMBER OF ELECTRONS          =  26.000

:FLDA  : F E R M I - ENERGY           =   1.57455




:POS001: AT.NR.   1 POSITION = 0.00000 0.00000 0.00000  MULTIPLICITY =  1

       LMMAX  5
       LM=   0 0  4 0  4 4  6 0  6 4




:POS002: AT.NR.   2 POSITION = 0.00000 0.00000 0.00000  MULTIPLICITY =  2

       LMMAX  6
       LM=   0 0  4 0  4 4  6 0  6 4 -3 2
:FER DMFT Fermi Energy   0.85481
:EORB        -57.916517979
:SUM SUM OF DMFT BAND ENERGIES         60.354399331

:CHA001: TOTAL CHARGE INSIDE SPHERE   1 =     8.255669
:PCS001: PARTIAL CHARGES SPHERE =  1 S,P,D,F,      D-EG,D-T2G 
:QTL001: 1.8047 4.2114 0.2783 1.9563 0.0000 0.0000 0.0000 0.0675 0.2349 0.0000 0.0000 0.0000
        Q-s-low E-s-low   Q-p-low E-p-low   Q-d-low E-d-low   Q-f-low E-f-low
:EPL001:  1.8045 -2.0758    4.2102 -0.2901    0.2770  0.5626    0.2481  0.7140
        Q-s-hi  E-s-hi    Q-p-hi  E-p-hi    Q-d-hi  E-d-hi    Q-f-hi  E-f-hi 
:EPH001:  0.0002  1.0706    0.0012  1.0768    0.0012  1.0728    1.7082  1.0668

:CHA002: TOTAL CHARGE INSIDE SPHERE   2 =     5.249470
:PCS002: PARTIAL CHARGES SPHERE =  2 S,P,D,F,      D-EG,D-T2G 
:QTL002: 1.5785 3.6531 0.0147 0.0026 0.0000 0.0000 0.0000 0.0053 0.0163 0.0000 0.0000 0.0000
        Q-s-low E-s-low   Q-p-low E-p-low   Q-d-low E-d-low   Q-f-low E-f-low
:EPL002:  1.5770 -0.3168    3.6462  0.6614    0.0130  0.1317    0.0021  0.0537
        Q-s-hi  E-s-hi    Q-p-hi  E-p-hi    Q-d-hi  E-d-hi    Q-f-hi  E-f-hi 
:EPH002:  0.0015  1.0574    0.0068  1.0845    0.0017  1.0730    0.0004  1.0662

:CHA  : TOTAL CHARGE INSIDE UNIT CELL =      26.000000

:ESUM  : SUM OF EIGENVALUES =           2.451015496


------- UO2.scfc --------

        1.ATOM      U  4+                21 CORE STATES
:1S 001: 1S               -8506.185647275 Ry
:2S 001: 2S               -1587.636228714 Ry
:2PP001: 2P*              -1530.881423381 Ry
:2P 001: 2P               -1249.686204573 Ry
:3S 001: 3S                -399.780146330 Ry
:3PP001: 3P*               -374.006647390 Ry
:3P 001: 3P                -309.223705494 Ry
:3DD001: 3D*               -268.410890408 Ry
:3D 001: 3D                -255.265788558 Ry
:4S 001: 4S                -100.849917385 Ry
:4PP001: 4P*                -89.256343981 Ry
:4P 001: 4P                 -72.346729104 Ry
:4DD001: 4D*                -53.881938328 Ry
:4D 001: 4D                 -50.773406086 Ry
:5S 001: 5S                 -21.444836813 Ry
:5PP001: 5P*                -16.938234043 Ry
:5P 001: 5P                 -12.908436465 Ry
:4FF001: 4F*                -26.487230343 Ry
:4F 001: 4F                 -25.677255200 Ry
:5DD001: 5D*                 -6.319650812 Ry
:5D 001: 5D                  -5.721583958 Ry

        2.ATOM      O  2-                 1 CORE STATES
:1S 002: 1S                 -35.864288140 Ry

------- UO2.scfm --------
:CINT001 Core Integral Atom   1   77.964159
:CINT002 Core Integral Atom   2    2.000000

       DENSITY AT NUCLEUS
        JATOM        VALENCE       SEMI-CORE          CORE           TOTAL
:RTO001:   1    17158.533413        0.000000 34591723.031986 34608881.565399
:RTO002:   2       14.988698        0.000000      299.339193      314.327892
     
       CHARGES OF NEW CHARGE DENSITY
:NTO   : INTERSTITIAL CHARGE =     7.245373
:NTO001: CHARGE SPHERE  1    =    86.219827
:NTO002: CHARGE SPHERE  2    =     7.249470

:NEC01: NUCLEAR AND ELECTRONIC CHARGE    108.00000   107.96414
     
       CHARGES OF OLD CHARGE DENSITY
:OTO   : INTERSTITIAL CHARGE =     7.281827
:OTO001: CHARGE SPHERE  1    =    86.218795
:OTO002: CHARGE SPHERE  2    =     7.249689

:NEC02: NUCLEAR AND ELECTRONIC CHARGE    108.00000   108.00000
     
       CONVERGENCE TEST
:DTO001: DIFFERENCE IN SPHERE  1 =  0.0010325
:DTO002: DIFFERENCE IN SPHERE  2 =  0.0002931

:DIS  :  CHARGE DISTANCE       ( 0.0010325 for atom    1 spin 1)      0.0005396
:BIG check (qbig,qrms,qtot)    0.344D-03   0.454D-03   0.540D-03
 
******************************************************
* MULTISECANT MIXING VER6 RELEASE 6.0 OPTIONS        *
* Standard Mode with controls                        *
* Regularization       1.000E-06                     *
* Trust Region Control Active                        *
* Max Number of Memory Steps    8                    *
******************************************************
 
:PLANE:  INTERSTITIAL TOTAL      2.55764 DISTAN  9.494E-03 % 
:CHARG:  CLM CHARGE   /ATOM    345.91861 DISTAN  4.280E-04 % 
 
 Step History DMIX, Red, Pred, Trust, FRMS, FABS
  2  2.5000E-02  1.0000E+00  1.0000E+00  1.0000E+00
  3  6.2500E-02  9.2333E-01  1.0000E+00  1.0000E+00
  4  9.7397E-02  2.1643E-01  2.7072E-01  2.6494E+00
  5  1.6911E-01  6.2598E-01  4.3679E-01  4.0137E+00
  6  2.0000E-01  6.1295E-01  2.5935E-01  4.7399E+00
  7  2.0000E-01  1.0000E+00  2.4645E-01  4.9952E+00
  
:NORMS:  Nuclear, Spectral, Froebius, Shanno-Pua   0.1373E+01  0.1068E+01  0.1168E+01  0.8937E+00
:INFO :  Number of Memory Steps    6 Skipping    0
:INFO :  SLambda=    1.3731253  Max    1.3731253

Eigenvalues, unscaled except for SY+YY
   #     SY Real        SY Imag          SS             YY         SY+YY Real      SY+YY Imag
   1   4.231554E+00   0.000000E+00   4.055058E+00   4.626686E+00   1.043198E+01   0.000000E+00
   2   4.400653E-01   0.000000E+00   2.942082E-01   6.256072E-01   1.348786E+00   0.000000E+00
   3   1.759438E-01   0.000000E+00   4.999080E-02   7.469339E-01   8.747827E-01   0.000000E+00
   4   4.227557E-04   0.000000E+00   2.264042E-04   7.624847E-04   1.336643E-03   0.000000E+00
   5  -1.508898E-15   0.000000E+00  -1.966449E-16   9.061654E-06   1.071861E-05   0.000000E+00
   6   8.778028E-07   0.000000E+00   1.249867E-07   1.532372E-06   1.664259E-06   0.000000E+00
 
:INFO :  Singular value   1.044E+01 Weight  1.0000E+00 Projections   3.982E-01  1.258E-03
:INFO :  Singular value   1.354E+00 Weight  1.0000E+00 Projections  -1.254E-01 -2.269E-03
:INFO :  Singular value   8.709E-01 Weight  1.0000E+00 Projections  -3.104E-01 -2.434E-03
:INFO :  Singular value   1.338E-03 Weight  9.9999E-01 Projections   5.828E-04  1.159E-01
:INFO :  Singular value   1.071E-05 Weight  8.4284E-01 Projections   5.922E-02 -5.007E-01
:INFO :  Singular value   1.663E-06 Weight  1.1443E-01 Projections  -3.185E-02 -1.050E-01
 
:DIRM :  MEMORY 6/8 RESCALE  18.56 RED 0.661 PRED 0.246 NEXT 0.218
:INFO :  Blimit    4.229E+00  1.286E+00  1.000E+00  5.142E+00
:DIRP :  |MSR1|= 2.072E-03 |PRATT|= 4.508E-03 ANGLE=  43.0 DEGREES
:DIRQ :  |MSR1|= 1.259E-03 |PRATT|= 2.961E-03 ANGLE=  35.8 DEGREES
:DIR  :  |MSR1|= 2.424E-03 |PRATT|= 5.393E-03 ANGLE=  41.1 DEGREES
:MIX  :   MSE1   REGULARIZATION: 4.63E-06  GREED: 0.200  Newton 1.00  0.45                
     
       CHARGES OF MIXED CHARGE DENSITY
:CTO   : INTERSTITIAL CHARGE =     7.281660
:CTO001: CHARGE SPHERE  1    =    86.218945
:CTO002: CHARGE SPHERE  2    =     7.249697

:NEC03: NUCLEAR AND ELECTRONIC CHARGE    108.00000   108.00000

PW CHANGE     H    K    L       Current     Change     Residue
:PTO001:      0    0    0  9.92396369E-02 -1.932E-06 -7.880E-06
:PTO002:     -1   -1   -1  2.31699727E-01 -6.832E-06 -1.111E-05
:PTO003:      0    0   -2 -2.13438769E-03 -2.133E-06  1.050E-05
:PTO004:      0   -2   -2  3.02150160E-01 -7.204E-06 -2.912E-05
:PTO005:     -1   -1   -3  1.50379308E-01 -1.248E-05 -2.011E-05
:PTO006:     -2   -2   -2 -2.33005925E-02 -2.816E-06  5.302E-06
:PTO007:      0    0   -4  4.02232054E-02 -1.433E-06 -6.816E-06
:PTO008:     -1   -3   -3  2.10646421E-02 -1.151E-05 -9.612E-06
:PTO009:      0   -2   -4 -5.32947880E-02 -6.414E-06 -1.134E-06
:PTO010:     -2   -2   -4  3.06564444E-02 -6.117E-06 -8.845E-06
:PTO011:     -3   -3   -3 -6.31905629E-03 -1.470E-06 -1.221E-06
:PTO012:     -1   -1   -5 -7.95521175E-03  3.417E-06  2.727E-06

:ENE  : ********** TOTAL ENERGY IN Ry =       -56437.60407536

